! TOUCHSTONE file generated by CST MICROWAVE STUDIO
! Date and time: Fri Feb  2 19:49:55 2024
! Project name: aire_def.cst
! Header version: 2018
! Port assignment regex: !\s*Touchstone port\s*([0-9]+)\s*=\s*(CST MWS port|CST DS port)\s*([0-9]+|Zmin|Zmax)\s*\(\"(.*)\"\)(\s*mode\s*([0-9]+))?.*
! Touchstone port assignment:
! Touchstone port 1 = CST MWS port 1 ("")
! Touchstone port 2 = CST MWS port 2 ("")
# GHz S MA R 376.7
10                   5.07904e-05          150.94         0.999999         -120.09         0.999998         -120.09      5.04656e-05         150.964
10.02                5.11957e-05         150.666         0.999999         -120.33         0.999998         -120.33      5.08635e-05         150.683
10.04                5.16018e-05         150.392         0.999999         -120.57         0.999998         -120.57      5.12626e-05         150.404
10.06                5.20086e-05          150.12         0.999999         -120.81         0.999998         -120.81       5.1663e-05         150.126
10.08                 5.2416e-05         149.848         0.999999         -121.05         0.999998         -121.05      5.20645e-05         149.849
10.1                 5.28242e-05         149.577         0.999999        -121.291         0.999998        -121.291      5.24671e-05         149.573
10.12                5.32331e-05         149.307         0.999999        -121.531         0.999998        -121.531      5.28709e-05         149.299
10.14                5.36427e-05         149.038         0.999999        -121.771         0.999998        -121.771      5.32759e-05         149.025
10.16                5.40531e-05          148.77         0.999999        -122.011         0.999998        -122.011      5.36821e-05         148.753
10.18                5.44641e-05         148.502         0.999999        -122.251         0.999998        -122.251      5.40893e-05         148.481
10.2                 5.48759e-05         148.235         0.999999        -122.491         0.999998        -122.491      5.44977e-05          148.21
10.22                5.52885e-05         147.969         0.999999        -122.731         0.999998        -122.731      5.49073e-05          147.94
10.24                5.57018e-05         147.704         0.999999        -122.971         0.999998        -122.971       5.5318e-05         147.672
10.26                5.61158e-05         147.439         0.999999        -123.211         0.999998        -123.211      5.57298e-05         147.404
10.28                5.65306e-05         147.175         0.999999        -123.451         0.999998        -123.451      5.61427e-05         147.137
10.3                 5.69462e-05         146.912         0.999999        -123.692         0.999998        -123.692      5.65567e-05         146.871
10.32                5.73625e-05          146.65         0.999999        -123.932         0.999998        -123.932      5.69718e-05         146.605
10.34                5.77796e-05         146.388         0.999999        -124.172         0.999998        -124.172      5.73881e-05         146.341
10.36                5.81975e-05         146.126         0.999999        -124.412         0.999998        -124.412      5.78054e-05         146.077
10.38                5.86162e-05         145.866         0.999999        -124.652         0.999998        -124.652      5.82238e-05         145.814
10.4                 5.90356e-05         145.605         0.999999        -124.892         0.999998        -124.892      5.86433e-05         145.551
10.42                5.94558e-05         145.346         0.999999        -125.132         0.999998        -125.132      5.90639e-05          145.29
10.44                5.98769e-05         145.087         0.999999        -125.373         0.999999        -125.373      5.94855e-05         145.029
10.46                6.02987e-05         144.828         0.999999        -125.613         0.999999        -125.613      5.99082e-05         144.769
10.48                6.07213e-05          144.57         0.999999        -125.853         0.999999        -125.853       6.0332e-05         144.509
10.5                 6.11447e-05         144.313         0.999999        -126.093         0.999999        -126.093      6.07568e-05          144.25
10.52                6.15689e-05         144.056         0.999999        -126.333         0.999999        -126.333      6.11827e-05         143.992
10.54                6.19939e-05           143.8         0.999999        -126.573         0.999999        -126.573      6.16097e-05         143.735
10.56                6.24197e-05         143.544         0.999999        -126.813         0.999999        -126.813      6.20376e-05         143.478
10.58                6.28464e-05         143.289         0.999999        -127.054         0.999999        -127.054      6.24666e-05         143.221
10.6                 6.32738e-05         143.034         0.999999        -127.294         0.999999        -127.294      6.28967e-05         142.965
10.62                6.37021e-05         142.779         0.999999        -127.534         0.999999        -127.534      6.33277e-05          142.71
10.64                6.41312e-05         142.525         0.999999        -127.774         0.999999        -127.774      6.37598e-05         142.455
10.66                6.45611e-05         142.271         0.999999        -128.014         0.999999        -128.014      6.41929e-05         142.201
10.68                6.49918e-05         142.018         0.999999        -128.254         0.999999        -128.254      6.46271e-05         141.947
10.7                 6.54234e-05         141.765         0.999999        -128.495         0.999999        -128.495      6.50622e-05         141.694
10.72                6.58558e-05         141.513         0.999999        -128.735         0.999999        -128.735      6.54983e-05         141.441
10.74                 6.6289e-05         141.261         0.999999        -128.975         0.999999        -128.975      6.59354e-05         141.189
10.76                6.67231e-05         141.009         0.999999        -129.215         0.999999        -129.215      6.63735e-05         140.937
10.78                6.71579e-05         140.758         0.999999        -129.455         0.999999        -129.455      6.68126e-05         140.686
10.8                 6.75937e-05         140.507         0.999999        -129.695         0.999999        -129.695      6.72527e-05         140.435
10.82                6.80302e-05         140.256         0.999999        -129.936         0.999999        -129.936      6.76938e-05         140.185
10.84                6.84676e-05         140.006         0.999999        -130.176         0.999999        -130.176      6.81358e-05         139.935
10.86                6.89058e-05         139.756         0.999999        -130.416         0.999999        -130.416      6.85788e-05         139.685
10.88                6.93449e-05         139.507         0.999999        -130.656         0.999999        -130.656      6.90228e-05         139.436
10.9                 6.97848e-05         139.258         0.999999        -130.896         0.999999        -130.896      6.94677e-05         139.187
10.92                7.02255e-05         139.009         0.999999        -131.137         0.999999        -131.137      6.99135e-05         138.938
10.94                7.06671e-05          138.76         0.999999        -131.377         0.999999        -131.377      7.03604e-05          138.69
10.96                7.11095e-05         138.512         0.999999        -131.617         0.999999        -131.617      7.08081e-05         138.442
10.98                7.15528e-05         138.263         0.999999        -131.857         0.999999        -131.857      7.12568e-05         138.195
11                   7.19969e-05         138.016         0.999999        -132.097         0.999999        -132.097      7.17065e-05         137.948
11.02                7.24418e-05         137.768         0.999999        -132.338         0.999999        -132.338       7.2157e-05         137.701
11.04                7.28876e-05         137.521         0.999999        -132.578         0.999999        -132.578      7.26085e-05         137.454
11.06                7.33342e-05         137.274         0.999999        -132.818         0.999999        -132.818      7.30609e-05         137.208
11.08                7.37817e-05         137.027         0.999999        -133.058         0.999999        -133.058      7.35142e-05         136.962
11.1                   7.423e-05         136.781         0.999999        -133.298         0.999999        -133.298      7.39685e-05         136.716
11.12                7.46792e-05         136.534         0.999999        -133.539         0.999999        -133.539      7.44236e-05         136.471
11.14                7.51292e-05         136.288         0.999999        -133.779         0.999999        -133.779      7.48796e-05         136.226
11.16                  7.558e-05         136.043         0.999999        -134.019         0.999999        -134.019      7.53366e-05         135.981
11.18                7.60317e-05         135.797         0.999999        -134.259         0.999999        -134.259      7.57944e-05         135.737
11.2                 7.64842e-05         135.552         0.999999        -134.499         0.999999        -134.499      7.62531e-05         135.492
11.22                7.69375e-05         135.307         0.999999         -134.74         0.999999         -134.74      7.67127e-05         135.248
11.24                7.73917e-05         135.062         0.999999         -134.98         0.999999         -134.98      7.71732e-05         135.004
11.26                7.78468e-05         134.817         0.999999         -135.22         0.999999         -135.22      7.76345e-05         134.761
11.28                7.83026e-05         134.572         0.999999         -135.46         0.999999         -135.46      7.80967e-05         134.517
11.3                 7.87593e-05         134.328         0.999999          -135.7         0.999999          -135.7      7.85598e-05         134.274
11.32                7.92169e-05         134.084         0.999999        -135.941         0.999999        -135.941      7.90237e-05         134.031
11.34                7.96752e-05          133.84         0.999999        -136.181         0.999999        -136.181      7.94885e-05         133.788
11.36                8.01344e-05         133.596         0.999999        -136.421                1        -136.421      7.99541e-05         133.546
11.38                8.05944e-05         133.352         0.999999        -136.661                1        -136.661      8.04206e-05         133.303
11.4                 8.10553e-05         133.109         0.999999        -136.902                1        -136.901      8.08879e-05         133.061
11.42                 8.1517e-05         132.865         0.999999        -137.142                1        -137.142      8.13561e-05         132.819
11.44                8.19795e-05         132.622                1        -137.382                1        -137.382       8.1825e-05         132.577
11.46                8.24428e-05         132.379                1        -137.622                1        -137.622      8.22948e-05         132.336
11.48                 8.2907e-05         132.136                1        -137.862                1        -137.862      8.27654e-05         132.094
11.5                 8.33719e-05         131.893                1        -138.103                1        -138.103      8.32369e-05         131.853
11.52                8.38377e-05         131.651                1        -138.343                1        -138.343      8.37091e-05         131.611
11.54                8.43043e-05         131.408                1        -138.583                1        -138.583      8.41822e-05          131.37
11.56                8.47717e-05         131.166                1        -138.823                1        -138.823       8.4656e-05         131.129
11.58                  8.524e-05         130.924                1        -139.063                1        -139.063      8.51307e-05         130.889
11.6                  8.5709e-05         130.682                1        -139.304                1        -139.304      8.56061e-05         130.648
11.62                8.61789e-05          130.44                1        -139.544                1        -139.544      8.60823e-05         130.407
11.64                8.66495e-05         130.198                1        -139.784                1        -139.784      8.65593e-05         130.167
11.66                 8.7121e-05         129.956                1        -140.024                1        -140.024      8.70371e-05         129.927
11.68                8.75932e-05         129.715                1        -140.265                1        -140.265      8.75156e-05         129.686
11.7                 8.80663e-05         129.473                1        -140.505                1        -140.505       8.7995e-05         129.446
11.72                8.85401e-05         129.232                1        -140.745                1        -140.745       8.8475e-05         129.206
11.74                8.90148e-05          128.99                1        -140.985                1        -140.985      8.89559e-05         128.967
11.76                8.94902e-05         128.749                1        -141.225                1        -141.225      8.94375e-05         128.727
11.78                8.99664e-05         128.508                1        -141.466                1        -141.466      8.99198e-05         128.487
11.8                 9.04434e-05         128.267                1        -141.706                1        -141.706      9.04029e-05         128.248
11.82                9.09212e-05         128.026                1        -141.946                1        -141.946      9.08867e-05         128.008
11.84                9.13998e-05         127.785                1        -142.186                1        -142.186      9.13712e-05         127.769
11.86                9.18791e-05         127.544                1        -142.427                1        -142.427      9.18565e-05         127.529
11.88                9.23592e-05         127.304                1        -142.667                1        -142.667      9.23425e-05          127.29
11.9                 9.28401e-05         127.063                1        -142.907                1        -142.907      9.28292e-05         127.051
11.92                9.33217e-05         126.822                1        -143.147                1        -143.147      9.33167e-05         126.812
11.94                9.38041e-05         126.582                1        -143.387                1        -143.387      9.38048e-05         126.573
11.96                9.42873e-05         126.342                1        -143.628                1        -143.628      9.42936e-05         126.334
11.98                9.47712e-05         126.101                1        -143.868                1        -143.868      9.47832e-05         126.095
12                   9.52559e-05         125.861                1        -144.108                1        -144.108      9.52734e-05         125.856
12.02                9.57413e-05         125.621                1        -144.348                1        -144.348      9.57643e-05         125.617
12.04                9.62275e-05         125.381                1        -144.589                1        -144.589      9.62559e-05         125.379
12.06                9.67144e-05         125.141                1        -144.829                1        -144.829      9.67482e-05          125.14
12.08                 9.7202e-05         124.901                1        -145.069                1        -145.069      9.72412e-05         124.902
12.1                 9.76904e-05         124.661                1        -145.309                1        -145.309      9.77348e-05         124.663
12.12                9.81795e-05         124.421                1        -145.549                1        -145.549      9.82291e-05         124.424
12.14                9.86693e-05         124.181                1         -145.79                1         -145.79       9.8724e-05         124.186
12.16                9.91599e-05         123.941                1         -146.03                1         -146.03      9.92196e-05         123.948
12.18                9.96512e-05         123.701                1         -146.27                1         -146.27      9.97159e-05         123.709
12.2                 0.000100143         123.462                1         -146.51                1         -146.51      0.000100213         123.471
12.22                0.000100636         123.222                1        -146.751                1        -146.751       0.00010071         123.233
12.24                0.000101129         122.982                1        -146.991                1        -146.991      0.000101208         122.994
12.26                0.000101623         122.743                1        -147.231                1        -147.231      0.000101707         122.756
12.28                0.000102118         122.503                1        -147.471                1        -147.471      0.000102207         122.518
12.3                 0.000102614         122.264                1        -147.711                1        -147.711      0.000102707          122.28
12.32                 0.00010311         122.024                1        -147.952                1        -147.952      0.000103207         122.042
12.34                0.000103607         121.785                1        -148.192                1        -148.192      0.000103709         121.803
12.36                0.000104104         121.545                1        -148.432                1        -148.432       0.00010421         121.565
12.38                0.000104602         121.306                1        -148.672                1        -148.672      0.000104713         121.327
12.4                 0.000105101         121.067                1        -148.912                1        -148.912      0.000105216         121.089
12.42                0.000105601         120.827                1        -149.153                1        -149.153       0.00010572         120.851
12.44                0.000106101         120.588                1        -149.393                1        -149.393      0.000106224         120.613
12.46                0.000106602         120.349                1        -149.633                1        -149.633      0.000106729         120.375
12.48                0.000107104         120.109                1        -149.873                1        -149.873      0.000107234         120.137
12.5                 0.000107606          119.87                1        -150.114                1        -150.114       0.00010774         119.899
12.52                0.000108109         119.631                1        -150.354                1        -150.354      0.000108246         119.661
12.54                0.000108612         119.392                1        -150.594                1        -150.594      0.000108753         119.423
12.56                0.000109116         119.153                1        -150.834                1        -150.834      0.000109261         119.185
12.58                0.000109621         118.914                1        -151.074                1        -151.074      0.000109769         118.947
12.6                 0.000110126         118.675                1        -151.315                1        -151.315      0.000110278         118.709
12.62                0.000110632         118.435                1        -151.555                1        -151.555      0.000110787         118.471
12.64                0.000111139         118.196                1        -151.795                1        -151.795      0.000111297         118.233
12.66                0.000111646         117.957                1        -152.035                1        -152.035      0.000111807         117.995
12.68                0.000112154         117.718                1        -152.275                1        -152.275      0.000112318         117.757
12.7                 0.000112662         117.479                1        -152.516                1        -152.516      0.000112829         117.519
12.72                0.000113171          117.24                1        -152.756                1        -152.756      0.000113341         117.281
12.74                0.000113681         117.001                1        -152.996                1        -152.996      0.000113853         117.043
12.76                0.000114191         116.762                1        -153.236                1        -153.236      0.000114366         116.805
12.78                0.000114702         116.523                1        -153.476                1        -153.477       0.00011488         116.567
12.8                 0.000115213         116.284                1        -153.717                1        -153.717      0.000115393         116.329
12.82                0.000115725         116.045                1        -153.957                1        -153.957      0.000115908         116.091
12.84                0.000116237         115.806                1        -154.197                1        -154.197      0.000116422         115.853
12.86                 0.00011675         115.567                1        -154.437                1        -154.437      0.000116938         115.615
12.88                0.000117264         115.328                1        -154.678                1        -154.678      0.000117453         115.377
12.9                 0.000117778         115.089                1        -154.918                1        -154.918      0.000117969         115.139
12.92                0.000118293          114.85                1        -155.158                1        -155.158      0.000118486         114.901
12.94                0.000118808         114.611                1        -155.398                1        -155.398      0.000119003         114.663
12.96                0.000119324         114.372                1        -155.638                1        -155.638      0.000119521         114.425
12.98                 0.00011984         114.133                1        -155.879                1        -155.879      0.000120039         114.187
13                   0.000120357         113.894                1        -156.119                1        -156.119      0.000120557         113.949
13.02                0.000120874         113.655                1        -156.359                1        -156.359      0.000121076         113.711
13.04                0.000121392         113.416                1        -156.599                1        -156.599      0.000121595         113.473
13.06                 0.00012191         113.177                1        -156.839                1        -156.839      0.000122115         113.235
13.08                0.000122429         112.938                1         -157.08                1         -157.08      0.000122635         112.996
13.1                 0.000122948         112.699                1         -157.32                1         -157.32      0.000123155         112.758
13.12                0.000123468          112.46                1         -157.56                1         -157.56      0.000123676          112.52
13.14                0.000123988         112.222                1          -157.8                1          -157.8      0.000124197         112.282
13.16                0.000124509         111.983                1         -158.04                1         -158.04      0.000124719         112.044
13.18                 0.00012503         111.744                1         -158.28                1        -158.281      0.000125241         111.805
13.2                 0.000125552         111.505                1        -158.521                1        -158.521      0.000125763         111.567
13.22                0.000126074         111.266                1        -158.761                1        -158.761      0.000126286         111.329
13.24                0.000126596         111.026                1        -159.001                1        -159.001      0.000126809          111.09
13.26                0.000127119         110.787                1        -159.241                1        -159.241      0.000127333         110.852
13.28                0.000127643         110.548                1        -159.481                1        -159.481      0.000127857         110.614
13.3                 0.000128166         110.309                1        -159.722                1        -159.722      0.000128381         110.375
13.32                0.000128691          110.07                1        -159.962                1        -159.962      0.000128905         110.137
13.34                0.000129215         109.831                1        -160.202                1        -160.202       0.00012943         109.898
13.36                0.000129741         109.592                1        -160.442                1        -160.442      0.000129956          109.66
13.38                0.000130266         109.353                1        -160.682                1        -160.682      0.000130481         109.422
13.4                 0.000130792         109.114                1        -160.923                1        -160.923      0.000131007         109.183
13.42                0.000131318         108.875                1        -161.163                1        -161.163      0.000131533         108.944
13.44                0.000131845         108.636                1        -161.403                1        -161.403       0.00013206         108.706
13.46                0.000132372         108.397                1        -161.643                1        -161.643      0.000132587         108.467
13.48                  0.0001329         108.158                1        -161.883                1        -161.883      0.000133114         108.229
13.5                 0.000133427         107.918                1        -162.124                1        -162.124      0.000133641          107.99
13.52                0.000133956         107.679                1        -162.364                1        -162.364      0.000134169         107.751
13.54                0.000134484          107.44                1        -162.604                1        -162.604      0.000134697         107.513
13.56                0.000135013         107.201                1        -162.844                1        -162.844      0.000135225         107.274
13.58                0.000135542         106.962                1        -163.084                1        -163.084      0.000135754         107.035
13.6                 0.000136072         106.723                1        -163.324                1        -163.324      0.000136282         106.797
13.62                0.000136602         106.483                1        -163.565                1        -163.565      0.000136811         106.558
13.64                0.000137132         106.244                1        -163.805                1        -163.805      0.000137341         106.319
13.66                0.000137662         106.005                1        -164.045                1        -164.045       0.00013787          106.08
13.68                0.000138193         105.766                1        -164.285                1        -164.285        0.0001384         105.841
13.7                 0.000138725         105.526                1        -164.525                1        -164.525       0.00013893         105.602
13.72                0.000139256         105.287                1        -164.766                1        -164.766       0.00013946         105.363
13.74                0.000139788         105.048                1        -165.006                1        -165.006      0.000139991         105.124
13.76                 0.00014032         104.808                1        -165.246                1        -165.246      0.000140522         104.885
13.78                0.000140852         104.569                1        -165.486                1        -165.486      0.000141053         104.646
13.8                 0.000141385          104.33                1        -165.726                1        -165.726      0.000141584         104.407
13.82                0.000141918          104.09                1        -165.966                1        -165.966      0.000142115         104.168
13.84                0.000142451         103.851                1        -166.207                1        -166.207      0.000142647         103.929
13.86                0.000142984         103.612                1        -166.447                1        -166.447      0.000143178          103.69
13.88                0.000143518         103.372                1        -166.687                1        -166.687       0.00014371         103.451
13.9                 0.000144052         103.133                1        -166.927                1        -166.927      0.000144242         103.212
13.92                0.000144586         102.893                1        -167.167                1        -167.167      0.000144775         102.973
13.94                 0.00014512         102.654                1        -167.407                1        -167.407      0.000145307         102.733