! TOUCHSTONE file generated by CST MICROWAVE STUDIO
! Date and time: Tue Feb 13 13:01:04 2024
! Project name: aire_pared.cst
! Header version: 2018
! Port assignment regex: !\s*Touchstone port\s*([0-9]+)\s*=\s*(CST MWS port|CST DS port)\s*([0-9]+|Zmin|Zmax)\s*\(\"(.*)\"\)(\s*mode\s*([0-9]+))?.*
! Touchstone port assignment:
! Touchstone port 1 = CST MWS port 1 ("")
! Touchstone port 2 = CST MWS port 2 ("")
# GHz S MA R 376.7
75                   4.59776e-05         29.2635                1         179.655         0.999829          179.69      0.000632538         95.1206
75.035                4.3177e-05          24.736                1         179.403         0.999831         179.437      0.000628774         94.7878
75.07                4.06812e-05         19.6288                1         179.151         0.999833         179.185      0.000624946           94.45
75.105               3.85472e-05         13.9183                1         178.899         0.999835         178.932      0.000621051         94.1069
75.14                3.68357e-05         7.62172                1         178.647         0.999836          178.68      0.000617088         93.7585
75.175               3.56052e-05        0.815122                1         178.395         0.999838         178.427      0.000613057         93.4047
75.21                3.49041e-05        -6.35771                1         178.143          0.99984         178.175      0.000608955         93.0453
75.245                3.4762e-05        -13.6937                1         177.891         0.999842         177.922      0.000604782         92.6801
75.28                3.51831e-05        -20.9606                1         177.639         0.999843          177.67      0.000600535         92.3092
75.315               3.61452e-05        -27.9385                1         177.387         0.999845         177.417      0.000596213         91.9323
75.35                3.76045e-05        -34.4571                1         177.135         0.999847         177.165      0.000591815         91.5493
75.385               3.95035e-05        -40.4129                1         176.883         0.999849         176.912      0.000587339         91.1601
75.42                4.17803e-05        -45.7664                1         176.631          0.99985          176.66      0.000582783         90.7645
75.455               4.43745e-05        -50.5268                1         176.379         0.999852         176.407      0.000578146         90.3623
75.49                4.72319e-05        -54.7337                1         176.127         0.999854         176.155      0.000573427         89.9535
75.525               5.03057e-05        -58.4416                1         175.875         0.999855         175.902      0.000568623         89.5379
75.56                5.35571e-05        -61.7095                1         175.622         0.999857          175.65      0.000563733         89.1152
75.595               5.69537e-05        -64.5947                1          175.37         0.999859         175.397      0.000558756         88.6854
75.63                6.04697e-05        -67.1492                1         175.118          0.99986         175.145      0.000553688         88.2482
75.665               6.40837e-05        -69.4191                1         174.866         0.999862         174.892       0.00054853         87.8035
75.7                 6.77787e-05        -71.4441                1         174.614         0.999864          174.64      0.000543279          87.351
75.735               7.15408e-05        -73.2583                1         174.362         0.999865         174.387      0.000537933         86.8906
75.77                7.53584e-05        -74.8903                1          174.11         0.999867         174.135       0.00053249          86.422
75.805               7.92223e-05        -76.3646                1         173.858         0.999869         173.882      0.000526949         85.9451
75.84                8.31249e-05        -77.7018                1         173.606          0.99987          173.63      0.000521308         85.4596
75.875               8.70596e-05        -78.9194                1         173.354         0.999872         173.377      0.000515565         84.9652
75.91                9.10213e-05        -80.0321                1         173.102         0.999874         173.125      0.000509717         84.4617
75.945               9.50053e-05        -81.0526                1          172.85         0.999875         172.873      0.000503765         83.9489
75.98                 9.9008e-05        -81.9916                1         172.598         0.999877          172.62      0.000497704         83.4264
76.015               0.000103026        -82.8585                1         172.346         0.999878         172.368      0.000491534          82.894
76.05                0.000107057        -83.6612                1         172.094          0.99988         172.115      0.000485253         82.3514
76.085               0.000111098        -84.4064                1         171.842         0.999882         171.863      0.000478859         81.7982
76.12                0.000115147        -85.1003         0.999999          171.59         0.999883         171.611      0.000472349         81.2341
76.155               0.000119203         -85.748         0.999998         171.338         0.999885         171.358      0.000465723         80.6588
76.19                0.000123264         -86.354         0.999998         171.086         0.999886         171.106      0.000458979         80.0717
76.225               0.000127328        -86.9223         0.999997         170.834         0.999888         170.853      0.000452114         79.4726
76.26                0.000131395        -87.4564         0.999996         170.582         0.999889         170.601      0.000445126          78.861
76.295               0.000135463        -87.9595         0.999995          170.33         0.999891         170.349      0.000438015         78.2363
76.33                0.000139531        -88.4341         0.999995         170.078         0.999893         170.096      0.000430779         77.5981
76.365               0.000143599        -88.8829         0.999994         169.826         0.999894         169.844      0.000423416         76.9459
76.4                 0.000147666        -89.3078         0.999994         169.574         0.999896         169.592      0.000415924          76.279
76.435               0.000151731        -89.7109         0.999993         169.322         0.999897         169.339      0.000408301         75.5968
76.47                0.000155793        -90.0939         0.999992          169.07         0.999899         169.087      0.000400548         74.8986
76.505               0.000159852        -90.4584         0.999992         168.817           0.9999         168.834      0.000392661         74.1836
76.54                0.000163907        -90.8058         0.999991         168.565         0.999902         168.582      0.000384641         73.4509
76.575               0.000167958        -91.1373         0.999991         168.313         0.999903          168.33      0.000376486         72.6998
76.61                0.000172005         -91.454          0.99999         168.061         0.999904         168.078      0.000368194          71.929
76.645               0.000176047        -91.7571          0.99999         167.809         0.999906         167.825      0.000359766         71.1376
76.68                0.000180084        -92.0475         0.999989         167.557         0.999907         167.573      0.000351201         70.3242
76.715               0.000184115         -92.326         0.999989         167.305         0.999909         167.321      0.000342497         69.4874
76.75                0.000188139        -92.5934         0.999988         167.053          0.99991         167.068      0.000333655         68.6257
76.785               0.000192158        -92.8504         0.999988         166.801         0.999912         166.816      0.000324676         67.7373
76.82                 0.00019617        -93.0978         0.999988         166.549         0.999913         166.564      0.000315558         66.8201
76.855               0.000200176         -93.336         0.999987         166.297         0.999914         166.311      0.000306302          65.872
76.89                0.000204174        -93.5657         0.999987         166.045         0.999916         166.059      0.000296911         64.8902
76.925               0.000208165        -93.7874         0.999986         165.793         0.999917         165.807      0.000287383         63.8717
76.96                0.000212149        -94.0015         0.999986         165.541         0.999919         165.555      0.000277723         62.8131
76.995               0.000216125        -94.2085         0.999986         165.289          0.99992         165.302       0.00026793         61.7103
77.03                0.000220093        -94.4088         0.999985         165.037         0.999921          165.05      0.000258009         60.5585
77.065               0.000224053        -94.6027         0.999985         164.785         0.999923         164.798      0.000247962         59.3522
77.1                 0.000228004        -94.7907         0.999985         164.533         0.999924         164.545      0.000237794         58.0846
77.135               0.000231947         -94.973         0.999985         164.281         0.999925         164.293       0.00022751         56.7478
77.17                0.000235882        -95.1499         0.999984         164.029         0.999927         164.041      0.000217116         55.3322
77.205               0.000239808        -95.3217         0.999984         163.777         0.999928         163.789      0.000206619          53.826
77.24                0.000243724        -95.4886         0.999984         163.525         0.999929         163.536      0.000196029         52.2149
77.275               0.000247632         -95.651         0.999984         163.273         0.999931         163.284      0.000185357          50.481
77.31                0.000251531         -95.809         0.999984         163.021         0.999932         163.032      0.000174618         48.6021
77.345                0.00025542        -95.9629         0.999983         162.769         0.999933          162.78       0.00016383         46.5498
77.38                0.000259299        -96.1128         0.999983         162.517         0.999934         162.528      0.000153014         44.2879
77.415               0.000263169         -96.259         0.999983         162.265         0.999936         162.275      0.000142202         41.7694
77.45                0.000267029        -96.4015         0.999983         162.013         0.999937         162.023       0.00013143         38.9327
77.485               0.000270879        -96.5406         0.999983         161.761         0.999938         161.771      0.000120751         35.6958
77.52                0.000274719        -96.6765         0.999983         161.509         0.999939         161.519      0.000110236         31.9494
77.555               0.000278549        -96.8092         0.999983         161.257         0.999941         161.267      9.99817e-05          27.546
77.59                0.000282369         -96.939         0.999983         161.005         0.999942         161.014      9.01292e-05         22.2888
77.625               0.000286178        -97.0659         0.999983         160.753         0.999943         160.762      8.08784e-05         15.9221
77.66                0.000289976          -97.19         0.999983         160.501         0.999944          160.51      7.25174e-05         8.13692
77.695               0.000293764        -97.3116         0.999983         160.249         0.999945         160.258      6.54479e-05        -1.37453
77.73                0.000297541        -97.4306         0.999983         159.997         0.999946         160.006      6.01881e-05        -12.7645
77.765               0.000301307        -97.5472         0.999983         159.745         0.999948         159.753      5.72976e-05        -25.7626
77.8                 0.000305062        -97.6615         0.999983         159.493         0.999949         159.501      5.71909e-05        -39.4904
77.835               0.000308806        -97.7735         0.999983         159.241          0.99995         159.249      5.99285e-05        -52.7143
77.87                0.000312539        -97.8835         0.999983         158.989         0.999951         158.997      6.51893e-05         -64.456
77.905                0.00031626        -97.9914         0.999983         158.737         0.999952         158.745      7.24533e-05        -74.3392
77.94                 0.00031997        -98.0973         0.999983         158.485         0.999953         158.493      8.12043e-05        -82.4608
77.975               0.000323668        -98.2013         0.999983         158.233         0.999954          158.24      9.10276e-05        -89.1156
78.01                0.000327355        -98.3035         0.999983         157.981         0.999955         157.988       0.00010162        -94.6183
78.045                0.00033103        -98.4039         0.999983         157.729         0.999956         157.736      0.000112769        -99.2356
78.08                0.000334692        -98.5027         0.999983         157.477         0.999958         157.484      0.000124322        -103.174
78.115               0.000338343        -98.5998         0.999983         157.225         0.999959         157.232      0.000136173         -106.59
78.15                0.000341982        -98.6953         0.999983         156.973          0.99996          156.98      0.000148244        -109.598
78.185               0.000345608        -98.7893         0.999984         156.721         0.999961         156.728      0.000160475        -112.283
78.22                0.000349223        -98.8819         0.999984         156.469         0.999962         156.475       0.00017282        -114.712
78.255               0.000352824         -98.973         0.999984         156.217         0.999963         156.223      0.000185243        -116.933
78.29                0.000356413        -99.0628         0.999984         155.965         0.999964         155.971      0.000197716        -118.983
78.325                0.00035999        -99.1512         0.999984         155.713         0.999965         155.719      0.000210212        -120.893
78.36                0.000363553        -99.2384         0.999984         155.461         0.999966         155.467       0.00022271        -122.684
78.395               0.000367104        -99.3243         0.999985         155.209         0.999967         155.215      0.000235193        -124.375
78.43                0.000370642        -99.4091         0.999985         154.957         0.999968         154.963      0.000247643        -125.981
78.465               0.000374167        -99.4926         0.999985         154.705         0.999969         154.711      0.000260046        -127.514
78.5                 0.000377678        -99.5751         0.999985         154.453          0.99997         154.458      0.000272388        -128.983
78.535               0.000381177        -99.6565         0.999986         154.201          0.99997         154.206      0.000284656        -130.396
78.57                0.000384662        -99.7368         0.999986         153.949         0.999971         153.954       0.00029684         -131.76
78.605               0.000388133        -99.8161         0.999986         153.697         0.999972         153.702      0.000308929         -133.08
78.64                0.000391591        -99.8944         0.999986         153.445         0.999973          153.45      0.000320913        -134.361
78.675               0.000395035        -99.9718         0.999987         153.193         0.999974         153.198      0.000332783        -135.606
78.71                0.000398465        -100.048         0.999987         152.941         0.999975         152.946      0.000344529        -136.819
78.745               0.000401881        -100.124         0.999987         152.689         0.999976         152.694      0.000356145        -138.002
78.78                0.000405283        -100.198         0.999987         152.437         0.999977         152.442      0.000367622        -139.158
78.815               0.000408672        -100.272         0.999988         152.185         0.999978          152.19      0.000378954        -140.289
78.85                0.000412046        -100.345         0.999988         151.933         0.999978         151.938      0.000390134        -141.396
78.885               0.000415405        -100.417         0.999988         151.681         0.999979         151.686      0.000401156        -142.482
78.92                 0.00041875        -100.489         0.999989         151.429          0.99998         151.433      0.000412015        -143.546
78.955               0.000422081         -100.56         0.999989         151.177         0.999981         151.181      0.000422706        -144.591
78.99                0.000425397        -100.629         0.999989         150.925         0.999982         150.929      0.000433223        -145.618
79.025               0.000428698        -100.699          0.99999         150.673         0.999983         150.677      0.000443564        -146.626
79.06                0.000431984        -100.767          0.99999         150.421         0.999983         150.425      0.000453725        -147.618
79.095               0.000435255        -100.835          0.99999         150.169         0.999984         150.173      0.000463702        -148.593
79.13                0.000438511        -100.902         0.999991         149.917         0.999985         149.921      0.000473492        -149.552
79.165               0.000441752        -100.969         0.999991         149.665         0.999986         149.669      0.000483093        -150.496
79.2                 0.000444978        -101.035         0.999992         149.413         0.999986         149.417      0.000492503        -151.425
79.235               0.000448188          -101.1         0.999992         149.161         0.999987         149.165      0.000501721        -152.339
79.27                0.000451383        -101.165         0.999992         148.909         0.999988         148.913      0.000510745         -153.24
79.305               0.000454562        -101.229         0.999993         148.657         0.999989         148.661      0.000519574        -154.126
79.34                0.000457725        -101.292         0.999993         148.405         0.999989         148.409      0.000528208        -154.999
79.375               0.000460872        -101.355         0.999994         148.153          0.99999         148.157      0.000536646        -155.859
79.41                0.000464004        -101.418         0.999994         147.902         0.999991         147.905      0.000544888        -156.705
79.445               0.000467119         -101.48         0.999994          147.65         0.999991         147.653      0.000552935        -157.539
79.48                0.000470219        -101.541         0.999995         147.398         0.999992         147.401      0.000560787        -158.361
79.515               0.000473301        -101.602         0.999995         147.146         0.999993         147.149      0.000568446         -159.17
79.55                0.000476368        -101.663         0.999996         146.894         0.999993         146.897      0.000575911        -159.967
79.585               0.000479418        -101.723         0.999996         146.642         0.999994         146.645      0.000583185        -160.752
79.62                0.000482451        -101.782         0.999997          146.39         0.999995         146.393       0.00059027        -161.525
79.655               0.000485468        -101.842         0.999997         146.138         0.999995         146.141      0.000597166        -162.287
79.69                0.000488468          -101.9         0.999997         145.886         0.999996         145.889      0.000603875        -163.037
79.725               0.000491451        -101.958         0.999998         145.634         0.999996         145.637      0.000610401        -163.776
79.76                0.000494417        -102.016         0.999998         145.382         0.999997         145.385      0.000616744        -164.503
79.795               0.000497365        -102.074         0.999999          145.13         0.999998         145.133      0.000622908         -165.22
79.83                0.000500296        -102.131         0.999999         144.878         0.999998         144.881      0.000628894        -165.926
79.865                0.00050321        -102.187                1         144.626         0.999999         144.629      0.000634705        -166.621
79.9                 0.000506107        -102.243                1         144.374         0.999999         144.377      0.000640345        -167.306
79.935               0.000508985        -102.299                1         144.122                1         144.125      0.000645815        -167.981
79.97                0.000511846        -102.355                1          143.87                1         143.873      0.000651118        -168.645
80.005                0.00051469         -102.41                1         143.618                1         143.621      0.000656258        -169.299
80.04                0.000517515        -102.465                1         143.366                1         143.369      0.000661237        -169.943
80.075               0.000520322        -102.519                1         143.114                1         143.117      0.000666059        -170.577
80.11                0.000523111        -102.573                1         142.862                1         142.865      0.000670725        -171.201
80.145               0.000525881        -102.627                1          142.61                1         142.613       0.00067524        -171.816
80.18                0.000528633         -102.68                1         142.358                1         142.361      0.000679606        -172.422
80.215               0.000531367        -102.733                1         142.106                1         142.109      0.000683826        -173.018
80.25                0.000534082        -102.786                1         141.854                1         141.857      0.000687904        -173.605
80.285               0.000536778        -102.838                1         141.603                1         141.605      0.000691842        -174.184
80.32                0.000539455        -102.891                1         141.351                1         141.353      0.000695644        -174.753
80.355               0.000542113        -102.943                1         141.099                1         141.101      0.000699312        -175.313
80.39                0.000544752        -102.994                1         140.847                1         140.849      0.000702849        -175.865
80.425               0.000547372        -103.045                1         140.595                1         140.597      0.000706259        -176.409
80.46                0.000549972        -103.096                1         140.343                1         140.345      0.000709544        -176.944
80.495               0.000552553        -103.147                1         140.091                1         140.093      0.000712707        -177.471
80.53                0.000555114        -103.198                1         139.839                1         139.841      0.000715752         -177.99
80.565               0.000557655        -103.248                1         139.587                1         139.589       0.00071868        -178.501
80.6                 0.000560177        -103.298                1         139.335                1         139.337      0.000721495        -179.004
80.635               0.000562678        -103.348                1         139.083                1         139.085        0.0007242        -179.499
80.67                 0.00056516        -103.397                1         138.831                1         138.833      0.000726797        -179.987
80.705               0.000567621        -103.446                1         138.579                1         138.581      0.000729288         179.532
80.74                0.000570062        -103.495                1         138.327                1         138.329      0.000731677         179.059
80.775               0.000572482        -103.544                1         138.075                1         138.077      0.000733966         178.594
80.81                0.000574882        -103.592                1         137.823                1         137.825      0.000736158         178.135
80.845               0.000577261        -103.641                1         137.571                1         137.573      0.000738255         177.683
80.88                 0.00057962        -103.689                1         137.319                1         137.321      0.000740259         177.238
80.915               0.000581957        -103.737                1         137.067                1         137.069      0.000742172           176.8
80.95                0.000584273        -103.784                1         136.816                1         136.817      0.000743998         176.368
80.985               0.000586568        -103.832                1         136.564                1         136.565      0.000745738         175.943
81.02                0.000588842        -103.879                1         136.312                1         136.313      0.000747395         175.524
81.055               0.000591094        -103.926                1          136.06                1         136.062       0.00074897         175.112
81.09                0.000593325        -103.973                1         135.808                1          135.81      0.000750466         174.706
81.125               0.000595534        -104.019                1         135.556                1         135.558      0.000751884         174.306
81.16                0.000597721        -104.065                1         135.304                1         135.306      0.000753227         173.912
81.195               0.000599886        -104.112                1         135.052                1         135.054      0.000754497         173.523
81.23                0.000602029        -104.158                1           134.8                1         134.802      0.000755696         173.141
81.265                0.00060415        -104.203                1         134.548                1          134.55      0.000756825         172.764
81.3                 0.000606249        -104.249                1         134.296                1         134.298      0.000757886         172.393
81.335               0.000608325        -104.294                1         134.044                1         134.046      0.000758882         172.027
81.37                0.000610379         -104.34                1         133.792                1         133.794      0.000759812         171.667
81.405                0.00061241        -104.385                1          133.54                1         133.542      0.000760681         171.312
81.44                0.000614418         -104.43                1         133.288                1          133.29      0.000761488         170.962
81.475               0.000616403        -104.474                1         133.036                1         133.038      0.000762235         170.617
81.51                0.000618365        -104.519                1         132.785                1         132.786      0.000762925         170.277
81.545               0.000620304        -104.563                1         132.533                1         132.534      0.000763558         169.943
81.58                0.000622219        -104.607                1         132.281                1         132.282      0.000764136         169.613
81.615               0.000624111        -104.651                1         132.029                1          132.03       0.00076466         169.288
81.65                 0.00062598        -104.695                1         131.777                1         131.779      0.000765132         168.967
81.685               0.000627824        -104.739                1         131.525                1         131.527      0.000765553         168.652
81.72                0.000629645        -104.782                1         131.273                1         131.275      0.000765924         168.341
81.755               0.000631442        -104.826                1         131.021                1         131.023      0.000766247         168.034
81.79                0.000633215        -104.869                1         130.769                1         130.771      0.000766523         167.732
81.825               0.000634963        -104.912                1         130.517                1         130.519      0.000766752         167.434
81.86                0.000636687        -104.955                1         130.265                1         130.267      0.000766936          167.14
81.895               0.000638387        -104.998                1         130.013                1         130.015      0.000767077          166.85