! TOUCHSTONE file generated by CST MICROWAVE STUDIO
! Date and time: Tue Feb 13 14:14:40 2024
! Project name: aire_pared.cst
! Header version: 2018
! Port assignment regex: !\s*Touchstone port\s*([0-9]+)\s*=\s*(CST MWS port|CST DS port)\s*([0-9]+|Zmin|Zmax)\s*\(\"(.*)\"\)(\s*mode\s*([0-9]+))?.*
! Touchstone port assignment:
! Touchstone port 1 = CST MWS port 1 ("")
! Touchstone port 2 = CST MWS port 2 ("")
# GHz S MA R 376.7
75                   3.82538e-05         44.9927                1         179.653                1         179.655      4.44496e-05         68.6276
75.035               3.89829e-05         47.8121                1         179.402                1         179.403      4.37811e-05         67.0149
75.07                3.98092e-05         50.5229                1         179.152                1         179.152      4.31448e-05         65.3477
75.105               4.07275e-05         53.1186                1         178.901                1         178.901      4.25428e-05         63.6259
75.14                4.17322e-05         55.5955         0.999999          178.65                1          178.65      4.19771e-05         61.8501
75.175               4.28177e-05         57.9518         0.999999         178.399                1         178.398      4.14496e-05         60.0211
75.21                4.39786e-05         60.1877         0.999999         178.148                1         178.147      4.09624e-05         58.1401
75.245               4.52096e-05          62.305         0.999998         177.897                1         177.896      4.05174e-05          56.209
75.28                4.65056e-05         64.3067         0.999998         177.646                1         177.644      4.01165e-05         54.2302
75.315               4.78618e-05         66.1965         0.999998         177.395                1         177.393      3.97618e-05         52.2065
75.35                4.92738e-05         67.9792         0.999997         177.144                1         177.141      3.94549e-05         50.1414
75.385               5.07374e-05         69.6595         0.999997         176.893                1          176.89      3.91975e-05         48.0388
75.42                5.22487e-05         71.2428         0.999997         176.642                1         176.639      3.89913e-05         45.9034
75.455               5.38042e-05         72.7343         0.999996         176.391                1         176.387      3.88376e-05         43.7402
75.49                5.54006e-05         74.1392         0.999996          176.14                1         176.136      3.87376e-05         41.5545
75.525               5.70349e-05         75.4628         0.999996         175.889                1         175.884      3.86924e-05         39.3523
75.56                5.87044e-05           76.71         0.999996         175.638         0.999999         175.633      3.87027e-05         37.1396
75.595               6.04067e-05         77.8856         0.999995         175.387         0.999997         175.381      3.87692e-05         34.9226
75.63                6.21394e-05         78.9943         0.999995         175.136         0.999996          175.13      3.88921e-05         32.7077
75.665               6.39006e-05         80.0403         0.999995         174.885         0.999995         174.879      3.90715e-05         30.5012
75.7                 6.56883e-05         81.0277         0.999995         174.633         0.999993         174.627      3.93073e-05         28.3092
75.735               6.75008e-05         81.9603         0.999995         174.382         0.999992         174.375       3.9599e-05         26.1374
75.77                6.93367e-05         82.8417         0.999995         174.131         0.999991         174.124      3.99461e-05         23.9916
75.805               7.11945e-05         83.6752         0.999994          173.88         0.999989         173.872      4.03477e-05         21.8767
75.84                 7.3073e-05          84.464         0.999994         173.629         0.999988         173.621      4.08028e-05         19.7973
75.875                7.4971e-05         85.2109         0.999994         173.377         0.999987         173.369      4.13103e-05         17.7576
75.91                7.68874e-05         85.9185         0.999994         173.126         0.999986         173.118      4.18689e-05          15.761
75.945               7.88213e-05         86.5895         0.999994         172.875         0.999984         172.866       4.2477e-05         13.8106
75.98                8.07719e-05          87.226         0.999994         172.624         0.999983         172.615      4.31334e-05         11.9088
76.015               8.27383e-05         87.8302         0.999994         172.372         0.999982         172.363      4.38363e-05         10.0574
76.05                8.47198e-05         88.4041         0.999994         172.121         0.999981         172.111      4.45841e-05         8.25792
76.085               8.67158e-05         88.9496         0.999994          171.87          0.99998          171.86      4.53752e-05         6.51114
76.12                8.87256e-05         89.4684         0.999994         171.618         0.999979         171.608      4.62079e-05         4.81758
76.155               9.07488e-05          89.962         0.999994         171.367         0.999978         171.357      4.70807e-05         3.17732
76.19                9.27848e-05          90.432         0.999994         171.116         0.999976         171.105      4.79918e-05          1.5901
76.225               9.48331e-05         90.8797         0.999994         170.864         0.999975         170.853      4.89396e-05       0.0553756
76.26                9.68934e-05         91.3064         0.999994         170.613         0.999974         170.602      4.99227e-05        -1.42765
76.295               9.89652e-05         91.7132         0.999994         170.361         0.999973          170.35      5.09395e-05        -2.85997
76.33                0.000101048         92.1014         0.999994          170.11         0.999972         170.098      5.19885e-05        -4.24278
76.365               0.000103142         92.4718         0.999994         169.858         0.999971         169.846      5.30684e-05        -5.57738
76.4                 0.000105247         92.8256         0.999994         169.607          0.99997         169.595      5.41778e-05        -6.86519
76.435               0.000107362         93.1635         0.999994         169.356         0.999969         169.343      5.53154e-05        -8.10769
76.47                0.000109487         93.4865         0.999994         169.104         0.999968         169.091        5.648e-05        -9.30641
76.505               0.000111622         93.7953         0.999994         168.853         0.999967          168.84      5.76705e-05        -10.4629
76.54                0.000113767         94.0907         0.999994         168.601         0.999966         168.588      5.88858e-05        -11.5789
76.575               0.000115921         94.3732         0.999994          168.35         0.999965         168.336      6.01249e-05        -12.6557
76.61                0.000118085         94.6437         0.999995         168.098         0.999965         168.084      6.13867e-05        -13.6951
76.645               0.000120258         94.9026         0.999995         167.846         0.999964         167.833      6.26704e-05        -14.6986
76.68                 0.00012244         95.1506         0.999995         167.595         0.999963         167.581       6.3975e-05        -15.6677
76.715               0.000124631         95.3882         0.999995         167.343         0.999962         167.329      6.52999e-05        -16.6038
76.75                0.000126831         95.6159         0.999995         167.092         0.999961         167.077      6.66441e-05        -17.5084
76.785               0.000129039         95.8341         0.999995          166.84          0.99996         166.825       6.8007e-05        -18.3829
76.82                0.000131257         96.0433         0.999995         166.589         0.999959         166.574      6.93879e-05        -19.2286
76.855               0.000133483          96.244         0.999996         166.337         0.999959         166.322      7.07861e-05        -20.0468
76.89                0.000135718         96.4365         0.999996         166.085         0.999958          166.07      7.22011e-05        -20.8387
76.925               0.000137961         96.6212         0.999996         165.834         0.999957         165.818      7.36323e-05        -21.6055
76.96                0.000140213         96.7984         0.999996         165.582         0.999956         165.566      7.50792e-05        -22.3484
76.995               0.000142473         96.9685         0.999996          165.33         0.999956         165.315      7.65412e-05        -23.0684
77.03                0.000144742         97.1317         0.999997         165.079         0.999955         165.063      7.80178e-05        -23.7666
77.065               0.000147019         97.2885         0.999997         164.827         0.999954         164.811      7.95088e-05        -24.4439
77.1                 0.000149304          97.439         0.999997         164.575         0.999953         164.559      8.10135e-05        -25.1014
77.135               0.000151599         97.5836         0.999997         164.324         0.999953         164.307      8.25317e-05        -25.7398
77.17                0.000153901         97.7224         0.999997         164.072         0.999952         164.055       8.4063e-05        -26.3601
77.205               0.000156212         97.8558         0.999998          163.82         0.999951         163.803       8.5607e-05        -26.9631
77.24                0.000158531          97.984         0.999998         163.569         0.999951         163.551      8.71634e-05        -27.5495
77.275               0.000160859         98.1071         0.999998         163.317          0.99995           163.3      8.87318e-05        -28.1202
77.31                0.000163195         98.2254         0.999998         163.065          0.99995         163.048       9.0312e-05        -28.6757
77.345                0.00016554          98.339         0.999999         162.813         0.999949         162.796      9.19038e-05        -29.2168
77.38                0.000167894         98.4483         0.999999         162.562         0.999948         162.544      9.35068e-05        -29.7441
77.415               0.000170256         98.5533         0.999999          162.31         0.999948         162.292      9.51208e-05        -30.2582
77.45                0.000172626         98.6541         0.999999         162.058         0.999947          162.04      9.67456e-05        -30.7597
77.485               0.000175006         98.7511                1         161.806         0.999947         161.788      9.83809e-05        -31.2491
77.52                0.000177394         98.8443                1         161.554         0.999946         161.536      0.000100027         -31.727
77.555               0.000179791         98.9339                1         161.303         0.999946         161.284      0.000101682        -32.1938
77.59                0.000182197           99.02                1         161.051         0.999945         161.032      0.000103348        -32.6501
77.625               0.000184612         99.1028                1         160.799         0.999945          160.78      0.000105024        -33.0962
77.66                0.000187036         99.1823                1         160.547         0.999944         160.528      0.000106709        -33.5326
77.695               0.000189469         99.2588                1         160.295         0.999944         160.276      0.000108403        -33.9598
77.73                0.000191911         99.3323                1         160.043         0.999943         160.025      0.000110107         -34.378
77.765               0.000194363         99.4029                1         159.792         0.999943         159.773       0.00011182        -34.7878
77.8                 0.000196823         99.4708                1          159.54         0.999942         159.521      0.000113542        -35.1893
77.835               0.000199294          99.536                1         159.288         0.999942         159.269      0.000115273        -35.5831
77.87                0.000201774         99.5988                1         159.036         0.999941         159.017      0.000117012        -35.9693
77.905               0.000204263          99.659                1         158.784         0.999941         158.765       0.00011876        -36.3483
77.94                0.000206762          99.717                1         158.532         0.999941         158.513      0.000120517        -36.7204
77.975               0.000209272         99.7727                1          158.28          0.99994         158.261      0.000122282        -37.0859
78.01                0.000211791         99.8262                1         158.028          0.99994         158.009      0.000124055        -37.4451
78.045                0.00021432         99.8776                1         157.776          0.99994         157.757      0.000125837        -37.7981
78.08                0.000216859          99.927                1         157.525         0.999939         157.505      0.000127626        -38.1453
78.115               0.000219409         99.9746                1         157.273         0.999939         157.253      0.000129423        -38.4869
78.15                0.000221969          100.02                1         157.021         0.999939         157.001      0.000131228        -38.8231
78.185                0.00022454         100.064                1         156.769         0.999938         156.749      0.000133041        -39.1541
78.22                0.000227121         100.106                1         156.517         0.999938         156.497      0.000134862        -39.4801
78.255               0.000229714         100.147                1         156.265         0.999938         156.245       0.00013669        -39.8014
78.29                0.000232317         100.186                1         156.013         0.999937         155.993      0.000138526        -40.1181
78.325               0.000234931         100.223                1         155.761         0.999937         155.741      0.000140369        -40.4304
78.36                0.000237557          100.26                1         155.509         0.999937         155.488      0.000142219        -40.7384
78.395               0.000240194         100.294                1         155.257         0.999937         155.236      0.000144077        -41.0424
78.43                0.000242843         100.328                1         155.005         0.999936         154.984      0.000145942        -41.3425
78.465               0.000245503          100.36                1         154.753         0.999936         154.732      0.000147814        -41.6389
78.5                 0.000248175         100.391                1         154.501         0.999936          154.48      0.000149693        -41.9317
78.535                0.00025086          100.42                1         154.249         0.999936         154.228      0.000151579         -42.221
78.57                0.000253556         100.449                1         153.997         0.999935         153.976      0.000153471         -42.507
78.605               0.000256265         100.477                1         153.745         0.999935         153.724      0.000155371        -42.7898
78.64                0.000258987         100.504                1         153.493         0.999935         153.472      0.000157277        -43.0696
78.675               0.000261721         100.529                1         153.241         0.999935          153.22       0.00015919        -43.3464
78.71                0.000264468         100.554                1         152.989         0.999935         152.968       0.00016111        -43.6204
78.745               0.000267228         100.578                1         152.737         0.999935         152.716      0.000163036        -43.8918
78.78                0.000270002         100.602                1         152.485         0.999934         152.464      0.000164969        -44.1605
78.815               0.000272789         100.624                1         152.233         0.999934         152.212      0.000166908        -44.4267
78.85                 0.00027559         100.646                1         151.981         0.999934          151.96      0.000168854        -44.6906
78.885               0.000278404         100.667                1         151.729         0.999934         151.708      0.000170806        -44.9522
78.92                0.000281233         100.688                1         151.477         0.999934         151.456      0.000172764        -45.2116
78.955               0.000284076         100.708                1         151.225         0.999934         151.203      0.000174728        -45.4689
78.99                0.000286934         100.727                1         150.973         0.999934         150.951      0.000176698        -45.7242
79.025               0.000289806         100.746                1         150.721         0.999934         150.699      0.000178674        -45.9775
79.06                0.000292694         100.765                1         150.468         0.999934         150.447      0.000180657        -46.2291
79.095               0.000295596         100.783                1         150.216         0.999933         150.195      0.000182645        -46.4788
79.13                0.000298514         100.801                1         149.964         0.999933         149.943      0.000184639        -46.7269
79.165               0.000301448         100.819                1         149.712         0.999933         149.691      0.000186639        -46.9734
79.2                 0.000304398         100.836                1          149.46         0.999933         149.439      0.000188645        -47.2184
79.235               0.000307363         100.853                1         149.208         0.999933         149.187      0.000190656        -47.4619
79.27                0.000310345          100.87                1         148.956         0.999933         148.935      0.000192673         -47.704
79.305               0.000313344         100.887                1         148.704         0.999933         148.683      0.000194695        -47.9447
79.34                 0.00031636         100.904                1         148.452         0.999933          148.43      0.000196723        -48.1843
79.375               0.000319393          100.92                1           148.2         0.999933         148.178      0.000198757        -48.4226
79.41                0.000322443         100.937                1         147.948         0.999933         147.926      0.000200796        -48.6598
79.445               0.000325511         100.954                1         147.695         0.999933         147.674       0.00020284        -48.8959
79.48                0.000328597          100.97                1         147.443         0.999933         147.422      0.000204889         -49.131
79.515               0.000331701         100.987                1         147.191         0.999933          147.17      0.000206943        -49.3651
79.55                0.000334824         101.004                1         146.939         0.999933         146.918      0.000209003        -49.5984
79.585               0.000337965         101.022                1         146.687         0.999933         146.666      0.000211067        -49.8307
79.62                0.000341126         101.039                1         146.435         0.999933         146.414      0.000213137        -50.0623
79.655               0.000344306         101.057                1         146.183         0.999934         146.161      0.000215211        -50.2931
79.69                0.000347505         101.075                1         145.931         0.999934         145.909       0.00021729        -50.5233
79.725               0.000350725         101.093                1         145.678         0.999934         145.657      0.000219374        -50.7527
79.76                0.000353965         101.112                1         145.426         0.999934         145.405      0.000221463        -50.9816
79.795               0.000357225         101.131                1         145.174         0.999934         145.153      0.000223556        -51.2099
79.83                0.000360507         101.151                1         144.922         0.999934         144.901      0.000225654        -51.4377
79.865                0.00036381         101.172                1          144.67         0.999934         144.649      0.000227756         -51.665
79.9                 0.000367134         101.192                1         144.418         0.999934         144.397      0.000229863        -51.8919
79.935                0.00037048         101.214                1         144.166         0.999934         144.144      0.000231974        -52.1184
79.97                0.000373849         101.236                1         143.914         0.999934         143.892      0.000234089        -52.3446
80.005                0.00037724         101.259                1         143.661         0.999934          143.64      0.000236209        -52.5705
80.04                0.000380654         101.283                1         143.409         0.999935         143.388      0.000238332        -52.7961
80.075               0.000384091         101.307                1         143.157         0.999935         143.136      0.000240459        -53.0214
80.11                0.000387551         101.333                1         142.905         0.999935         142.884      0.000242591        -53.2466
80.145               0.000391036         101.359                1         142.653         0.999935         142.632      0.000244726        -53.4717
80.18                0.000394545         101.386                1         142.401         0.999935          142.38      0.000246865        -53.6966
80.215               0.000398078         101.414                1         142.148         0.999935         142.127      0.000249008        -53.9215
80.25                0.000401637         101.443                1         141.896         0.999936         141.875      0.000251154        -54.1463
80.285               0.000405221         101.474                1         141.644         0.999936         141.623      0.000253304        -54.3711
80.32                 0.00040883         101.505                1         141.392         0.999936         141.371      0.000255457         -54.596
80.355               0.000412465         101.538                1          141.14         0.999936         141.119      0.000257613        -54.8209
80.39                0.000416127         101.572                1         140.888         0.999936         140.867      0.000259773        -55.0459
80.425               0.000419816         101.608                1         140.635         0.999936         140.615      0.000261935        -55.2711
80.46                0.000423531         101.644                1         140.383         0.999937         140.363      0.000264101        -55.4964
80.495               0.000427275         101.683                1         140.131         0.999937          140.11       0.00026627        -55.7219
80.53                0.000431046         101.722                1         139.879         0.999937         139.858      0.000268442        -55.9477
80.565               0.000434845         101.764                1         139.627         0.999937         139.606      0.000270616        -56.1737
80.6                 0.000438672         101.807                1         139.375         0.999937         139.354      0.000272793           -56.4
80.635               0.000442529         101.851                1         139.122         0.999938         139.102      0.000274973        -56.6266
80.67                0.000446414         101.898                1          138.87         0.999938          138.85      0.000277155        -56.8536
80.705               0.000450329         101.946                1         138.618         0.999938         138.598      0.000279339         -57.081
80.74                0.000454274         101.996                1         138.366         0.999938         138.346      0.000281525        -57.3088
80.775                0.00045825         102.048                1         138.114         0.999939         138.093      0.000283714         -57.537
80.81                0.000462255         102.102                1         137.862         0.999939         137.841      0.000285905        -57.7657
80.845               0.000466292         102.158                1         137.609         0.999939         137.589      0.000288097        -57.9949
80.88                 0.00047036         102.217                1         137.357         0.999939         137.337      0.000290292        -58.2247
80.915               0.000474459         102.277                1         137.105          0.99994         137.085      0.000292488         -58.455
80.95                 0.00047859          102.34                1         136.853          0.99994         136.833      0.000294685        -58.6859
80.985               0.000482752         102.406                1         136.601          0.99994         136.581      0.000296884        -58.9175
81.02                0.000486948         102.474                1         136.349         0.999941         136.329      0.000299084        -59.1496
81.055               0.000491175         102.544                1         136.096         0.999941         136.077      0.000301286        -59.3825
81.09                0.000495435         102.617                1         135.844         0.999941         135.824      0.000303488        -59.6161
81.125               0.000499728         102.693                1         135.592         0.999941         135.572      0.000305692        -59.8504
81.16                0.000504054         102.772                1          135.34         0.999942          135.32      0.000307896        -60.0855
81.195               0.000508414         102.853                1         135.088         0.999942         135.068      0.000310101        -60.3215
81.23                0.000512806         102.938                1         134.835         0.999942         134.816      0.000312306        -60.5582
81.265               0.000517232         103.025                1         134.583         0.999943         134.564      0.000314512        -60.7958
81.3                 0.000521692         103.116                1         134.331         0.999943         134.312      0.000316718        -61.0343
81.335               0.000526185          103.21                1         134.079         0.999943          134.06      0.000318924        -61.2737
81.37                0.000530712         103.308                1         133.827         0.999944         133.807      0.000321131         -61.514
81.405               0.000535272         103.409                1         133.575         0.999944         133.555      0.000323337        -61.7553
81.44                0.000539866         103.513                1         133.322         0.999944         133.303      0.000325542        -61.9976
81.475               0.000544493         103.622                1          133.07         0.999945         133.051      0.000327748         -62.241
81.51                0.000549153         103.734                1         132.818         0.999945         132.799      0.000329953        -62.4855
81.545               0.000553846          103.85                1         132.566         0.999945         132.547      0.000332157         -62.731
81.58                0.000558572          103.97                1         132.314         0.999946         132.295       0.00033436        -62.9777
81.615                0.00056333         104.094                1         132.062         0.999946         132.043      0.000336562        -63.2255
81.65                0.000568119         104.222                1         131.809         0.999946         131.791      0.000338763        -63.4745
81.685               0.000572941         104.355                1         131.557         0.999947         131.538      0.000340962        -63.7247
81.72                0.000577793         104.492                1         131.305         0.999947         131.286       0.00034316        -63.9762
81.755               0.000582676         104.634                1         131.053         0.999947         131.034      0.000345357         -64.229
81.79                0.000587588          104.78                1         130.801         0.999948         130.782      0.000347551        -64.4831
81.825               0.000592528         104.931                1         130.548         0.999948          130.53      0.000349744        -64.7386
81.86                0.000597497         105.087                1         130.296         0.999948         130.278      0.000351934        -64.9954
81.895               0.000602493         105.248                1         130.044         0.999949         130.026      0.000354122        -65.2537