! TOUCHSTONE file generated by CST MICROWAVE STUDIO
! Date and time: Thu Feb  8 14:51:03 2024
! Project name: aire_des.cst
! Header version: 2018
! Port assignment regex: !\s*Touchstone port\s*([0-9]+)\s*=\s*(CST MWS port|CST DS port)\s*([0-9]+|Zmin|Zmax)\s*\(\"(.*)\"\)(\s*mode\s*([0-9]+))?.*
! Touchstone port assignment:
! Touchstone port 1 = CST MWS port 1 ("")
! Touchstone port 2 = CST MWS port 2 ("")
# GHz S MA R 376.7
75                      0.595914         12.8441         0.445617         159.394         0.445675         159.359         0.595887         12.8214
75.035                  0.594847         11.6989         0.444785         158.769         0.444693         158.722         0.594722          11.681
75.07                   0.593658         10.5603         0.443809         158.145         0.443591          158.09         0.593455         10.5474
75.105                  0.592354         9.42889         0.442692         157.523         0.442372         157.464          0.59209         9.42099
75.14                    0.59094         8.30525         0.441438         156.903         0.441038         156.843         0.590632         8.30223
75.175                  0.589423         7.18985         0.440051         156.288         0.439595         156.229         0.589086         7.19142
75.21                    0.58781         6.08312         0.438538         155.678         0.438045         155.622         0.587457         6.08888
75.245                  0.586109         4.98547         0.436905         155.074         0.436393         155.023          0.58575         4.99493
75.28                   0.584325         3.89722         0.435158         154.477         0.434644         154.431          0.58397         3.90983
75.315                  0.582465         2.81869         0.433305         153.888         0.432805         153.848         0.582121         2.83385
75.35                   0.580535         1.75014         0.431354         153.308         0.430879         153.274         0.580208         1.76724
75.385                  0.578542        0.691792         0.429313         152.737         0.428875         152.709         0.578235        0.710243
75.42                   0.576491        -0.35613         0.427191         152.177         0.426797         152.154         0.576207       -0.336926
75.455                  0.574387        -1.39344         0.424996         151.626         0.424653         151.609         0.574128        -1.37404
75.49                   0.572235        -2.41994         0.422739         151.087         0.422451         151.075         0.572001        -2.40086
75.525                   0.57004        -3.43545         0.420427         150.559         0.420197          150.55          0.56983        -3.41715
75.56                   0.567805        -4.43977         0.418073         150.042           0.4179         150.037         0.567619        -4.42266
75.595                  0.565534        -5.43265         0.415684         149.537         0.415569         149.533         0.565368        -5.41708
75.63                   0.563229        -6.41384         0.413271         149.042         0.413211         149.041         0.563082        -6.40009
75.665                  0.560893          -7.383         0.410845         148.559         0.410837         148.558         0.560761        -7.37129
75.7                    0.558527        -8.33972         0.408416         148.086         0.408456         148.085         0.558407        -8.33019
75.735                  0.556131        -9.28347         0.405996         147.623         0.406078         147.622         0.556021        -9.27622
75.77                   0.553706        -10.2136         0.403597         147.169         0.403716         147.167         0.553601        -10.2086
75.805                  0.551249        -11.1292         0.401231         146.722          0.40138         146.719         0.551148        -11.1265
75.84                    0.54876        -12.0292         0.398911         146.282         0.399085         146.277         0.548658        -12.0287
75.875                  0.546235        -12.9121         0.396654         145.845         0.396845         145.838         0.546128        -12.9137
75.91                   0.543667         -13.776         0.394476          145.41         0.394678         145.401         0.543554        -13.7795
75.945                  0.541051        -14.6184         0.392396         144.972         0.392603         144.962         0.540928        -14.6235
75.98                   0.538376        -15.4359          0.39044         144.528         0.390645         144.516         0.538241        -15.4423
76.015                  0.535631        -16.2237         0.388635         144.071         0.388834         144.058         0.535482        -16.2311
76.05                   0.532797        -16.9753         0.387021         143.593         0.387207         143.579         0.532632        -16.9834
76.085                  0.529854        -17.6814         0.385646         143.082         0.385814         143.068         0.529671        -17.6897
76.12                   0.526772        -18.3283         0.384578         142.521         0.384723         142.507         0.526571        -18.3364
76.155                  0.523514         -18.895         0.383914         141.885         0.384031         141.873         0.523293        -18.9023
76.19                   0.520035        -19.3482         0.383799         141.135         0.383883         141.125         0.519795        -19.3539
76.225                  0.516288        -19.6313          0.38446         140.205         0.384507         140.199         0.516028        -19.6344
76.26                   0.512254        -19.6417         0.386278         138.978         0.386282         138.978         0.511978        -19.6408
76.295                  0.508094        -19.1738         0.389934          137.22         0.389887         137.231          0.50781        -19.1666
76.33                   0.504856        -17.7638         0.396736         134.398         0.396632         134.425         0.504588        -17.7464
76.365                  0.508792        -14.2184         0.409172         128.983         0.409012         129.039         0.508636        -14.1852
76.4                    0.568733        -6.19868         0.425504         114.653         0.425451         114.773         0.569081        -6.17097
76.435                  0.880166        -16.8273         0.225149         61.7881         0.225396         61.8368         0.879541        -16.8707
76.47                   0.706776        -37.2657         0.169114         169.578         0.169893         169.483         0.706794        -37.2629
76.505                  0.610184        -37.9231         0.255889         159.708         0.256343         159.622         0.610139        -37.9405
76.54                   0.573921        -37.4687         0.284706         155.176          0.28499          155.11         0.573771        -37.4894
76.575                  0.555572        -37.3295         0.297889         152.736         0.298079         152.684         0.555354         -37.349
76.61                   0.544294        -37.4718         0.304949         151.232          0.30508          151.19         0.544032        -37.4888
76.645                  0.536427        -37.8029         0.309051         150.222         0.309141          150.19         0.536133        -37.8172
76.68                   0.530441        -38.2596         0.311529         149.507          0.31159         149.482         0.530123        -38.2712
76.715                  0.525597        -38.8022         0.313039         148.982         0.313079         148.963          0.52526        -38.8111
76.75                   0.521495        -39.4053          0.31394         148.587         0.313966         148.574         0.521142        -39.4115
76.785                  0.517903         -40.052         0.314445         148.287         0.314461         148.279         0.517538        -40.0556
76.82                   0.514676        -40.7311         0.314688         148.058         0.314698         148.055         0.514302        -40.7321
76.855                  0.511722        -41.4345         0.314757         147.884         0.314764         147.885         0.511339         -41.433
76.89                   0.508975        -42.1565         0.314714         147.754         0.314721         147.758         0.508585        -42.1525
76.925                  0.506391        -42.8928           0.3146         147.659         0.314609         147.665         0.505995        -42.8864
76.96                   0.503937        -43.6403         0.314448         147.593          0.31446         147.602         0.503536        -43.6316
76.995                  0.501589        -44.3966          0.31428         147.552         0.314297         147.562         0.501183        -44.3855
77.03                   0.499328        -45.1597         0.314115         147.531         0.314138         147.543         0.498919        -45.1463
77.065                   0.49714        -45.9281         0.313966         147.527         0.313995          147.54         0.496728        -45.9125
77.1                    0.495015        -46.7008         0.313844         147.539         0.313878         147.552         0.494599        -46.6828
77.135                  0.492942        -47.4766         0.313757         147.563         0.313796         147.576         0.492524        -47.4562
77.17                   0.490915        -48.2548         0.313712         147.598         0.313755          147.61         0.490494         -48.232
77.205                  0.488926        -49.0348         0.313714         147.642         0.313759         147.654         0.488505        -49.0095
77.24                   0.486971        -49.8159         0.313767         147.694         0.313814         147.705          0.48655         -49.788
77.275                  0.485045        -50.5977         0.313875         147.753         0.313921         147.763         0.484625        -50.5671
77.31                   0.483145        -51.3796          0.31404         147.818         0.314083         147.826         0.482728        -51.3464
77.345                  0.481266        -52.1613         0.314265         147.887         0.314304         147.893         0.480855        -52.1254
77.38                   0.479406        -52.9423         0.314551          147.96         0.314583         147.964         0.479003        -52.9038
77.415                  0.477562        -53.7223         0.314901         148.035         0.314923         148.039          0.47717        -53.6814
77.45                   0.475734        -54.5009         0.315314         148.113         0.315325         148.115         0.475354        -54.4578
77.485                   0.47392        -55.2777         0.315792         148.192         0.315789         148.194         0.473553        -55.2327
77.52                   0.472118        -56.0526         0.316336         148.272         0.316317         148.273         0.471767         -56.006
77.555                   0.47033        -56.8252         0.316945         148.352         0.316911         148.354         0.469993        -56.7775
77.59                   0.468553        -57.5953          0.31762         148.431          0.31757         148.434          0.46823        -57.5468
77.625                  0.466788        -58.3629         0.318361          148.51         0.318296         148.515         0.466477        -58.3139
77.66                   0.465033        -59.1276         0.319168         148.587         0.319091         148.595         0.464734        -59.0784
77.695                   0.46329        -59.8894          0.32004         148.661         0.319955         148.674         0.462999        -59.8403
77.73                   0.461556        -60.6481         0.320974         148.734          0.32089         148.751         0.461272        -60.5992
77.765                  0.459832        -61.4036         0.321968         148.803         0.321897         148.826         0.459552        -61.3552
77.8                    0.458118        -62.1557         0.323015         148.869         0.322977         148.898         0.457838        -62.1079
77.835                  0.456412        -62.9042         0.324096         148.934          0.32413         148.967         0.456128        -62.8571
77.87                   0.454715         -63.649         0.325197         149.009         0.325358         149.033          0.45442        -63.6027
77.905                  0.453027        -64.3899         0.326506         149.108         0.326659         149.093         0.452711        -64.3444
77.94                   0.451348        -65.1268         0.328069         149.167         0.328032         149.149         0.450991        -65.0814
77.975                  0.449677        -65.8594         0.329574         149.202         0.329476         149.199         0.449238        -65.8103
78.01                   0.448015        -66.5877         0.331086         149.236          0.33099         149.243         0.447479        -66.5142
78.045                  0.446361        -67.3113         0.332649         149.268         0.332572          149.28         0.446114        -67.2136
78.08                   0.444717        -68.0302         0.334274         149.297          0.33422         149.312         0.444607        -67.9532
78.115                  0.443082         -68.744         0.335966         149.322         0.335934         149.337         0.442971        -68.6785
78.15                   0.441458        -69.4527         0.337727         149.341         0.337713         149.356         0.441331        -69.3927
78.185                  0.439844        -70.1561         0.339556         149.355         0.339557         149.369         0.439703         -70.099
78.22                   0.438241        -70.8539         0.341454         149.363         0.341466         149.375         0.438089        -70.7985
78.255                  0.436651        -71.5458         0.343422         149.365         0.343442         149.375         0.436488        -71.4916
78.29                   0.435073        -72.2319          0.34546          149.36         0.345484         149.368         0.434903        -72.1783
78.325                   0.43351        -72.9117         0.347568         149.349         0.347594         149.355         0.433332        -72.8585
78.36                   0.431963        -73.5852         0.349748         149.331         0.349773         149.334         0.431777        -73.5321
78.395                  0.430432        -74.2521            0.352         149.305         0.352021         149.307          0.43024        -74.1989
78.43                   0.428919        -74.9122         0.354324         149.272         0.354341         149.273         0.428722        -74.8588
78.465                  0.427425        -75.5652         0.356721         149.232         0.356733         149.231         0.427224        -75.5115
78.5                    0.425953        -76.2112         0.359192         149.183         0.359199         149.181         0.425748        -76.1569
78.535                  0.424505        -76.8497         0.361738         149.127         0.361739         149.124         0.424296        -76.7947
78.57                   0.423081        -77.4807         0.364359         149.061         0.364354         149.059          0.42287         -77.425
78.605                  0.421685        -78.1039         0.367057         148.988         0.367047         148.985         0.421472        -78.0473
78.64                   0.420319        -78.7192         0.369831         148.905         0.369816         148.902         0.420105        -78.6617
78.675                  0.418984        -79.3264         0.372684         148.813         0.372665          148.81         0.418771         -79.268
78.71                   0.417685        -79.9255         0.375615         148.712         0.375592         148.709         0.417473        -79.8659
78.745                  0.416424        -80.5162         0.378626         148.601         0.378601         148.598         0.416213        -80.4555
78.78                   0.415203        -81.0985         0.381716          148.48          0.38169         148.477         0.414995        -81.0367
78.815                  0.414025        -81.6723         0.384888         148.348         0.384861         148.346         0.413823        -81.6093
78.85                   0.412896        -82.2375         0.388141         148.206         0.388114         148.204         0.412698        -82.1733
78.885                  0.411816        -82.7942         0.391477         148.052          0.39145         148.051         0.411626        -82.7288
78.92                   0.410791        -83.3422         0.394894         147.887         0.394869         147.886         0.410608        -83.2758
78.955                  0.409824        -83.8818         0.398394          147.71         0.398371         147.709         0.409651        -83.8143
78.99                    0.40892         -84.413         0.401977         147.521         0.401956          147.52         0.408756        -84.3444
79.025                  0.408081        -84.9358         0.405643          147.32         0.405625         147.319         0.407929        -84.8663
79.06                   0.407313        -85.4505          0.40939         147.105         0.409376         147.104         0.407173        -85.3802
79.095                  0.406619        -85.9574          0.41322         146.877         0.413209         146.875         0.406492        -85.8864
79.13                   0.406005        -86.4567          0.41713         146.635         0.417123         146.633         0.405892        -86.3851
79.165                  0.405474        -86.9488         0.421121         146.378         0.421117         146.377         0.405376        -86.8767
79.2                    0.405031        -87.4341          0.42519         146.108         0.425189         146.106         0.404949        -87.3618
79.235                  0.404681        -87.9131         0.429336         145.822         0.429338          145.82         0.404615        -87.8407
79.27                   0.404427        -88.3863         0.433557         145.521         0.433561         145.518         0.404379         -88.314
79.305                  0.404274        -88.8544          0.43785         145.204         0.437857         145.201         0.404243        -88.7824
79.34                   0.404227         -89.318         0.442213         144.871         0.442222         144.867         0.404214        -89.2466
79.375                  0.404289         -89.778         0.446643         144.521         0.446653         144.518         0.404294        -89.7074
79.41                   0.404465        -90.2352         0.451135         144.155         0.451146         144.151         0.404487        -90.1655
79.445                  0.404757        -90.6905         0.455686         143.772         0.455697         143.767         0.404797        -90.6219
79.48                   0.405169        -91.1448         0.460291         143.371         0.460302         143.366         0.405226        -91.0776
79.515                  0.405704        -91.5992         0.464946         142.953         0.464956         142.948         0.405777        -91.5336
79.55                   0.406364        -92.0548         0.469644         142.517         0.469653         142.512         0.406453         -91.991
79.585                  0.407151        -92.5127          0.47438         142.063         0.474388         142.058         0.407256        -92.4508
79.62                   0.408067         -92.974         0.479148         141.592         0.479153         141.586         0.408186        -92.9143
79.655                  0.409112        -93.4401          0.48394         141.102         0.483944         141.096         0.409244        -93.3826
79.69                   0.410287        -93.9121         0.488749         140.594         0.488751         140.589         0.410431        -93.8569
79.725                  0.411591        -94.3913         0.493568         140.068         0.493568         140.063         0.411746        -94.3385
79.76                   0.413024        -94.8788         0.498389         139.524         0.498388         139.519         0.413188        -94.8286
79.795                  0.414582         -95.376         0.503203         138.962           0.5032         138.958         0.414755        -95.3283
79.83                   0.416265        -95.8841         0.508001         138.383         0.507998         138.379         0.416445         -95.839
79.865                  0.418069        -96.4041         0.512775         137.786         0.512771         137.782         0.418255        -96.3616
79.9                     0.41999        -96.9374         0.517516         137.172         0.517511         137.169          0.42018        -96.8973
79.935                  0.422024        -97.4848         0.522213         136.541         0.522209         136.538         0.422217        -97.4472
79.97                   0.424166        -98.0475         0.526858         135.894         0.526855         135.891         0.424361        -98.0123
80.005                  0.426409        -98.6264          0.53144          135.23         0.531439         135.228         0.426605        -98.5935
80.04                   0.428749        -99.2225          0.53595         134.551         0.535952          134.55         0.428945        -99.1917
80.075                  0.431178        -99.8365         0.540379         133.856         0.540384         133.855         0.431374        -99.8077
80.11                   0.433691        -100.469         0.544715         133.147         0.544724         133.147         0.433885        -100.442
80.145                  0.436279        -101.122         0.548951         132.423         0.548964         132.423         0.436471        -101.096
80.18                   0.438937        -101.794         0.553074         131.685         0.553092         131.686         0.439127        -101.771
80.215                  0.441657        -102.487         0.557076         130.934         0.557099         130.935         0.441844        -102.466
80.25                   0.444433        -103.203         0.560945         130.169         0.560973          130.17         0.444618        -103.182
80.285                  0.447261        -103.941          0.56467         129.391         0.564704         129.392         0.447442        -103.921
80.32                   0.450134        -104.703         0.568239         128.599         0.568278           128.6         0.450312        -104.684
80.355                  0.453051         -105.49         0.571637         127.793         0.571682         127.794         0.453226        -105.473
80.39                   0.456011        -106.305         0.574846         126.972         0.574896         126.973         0.456183        -106.289
80.425                  0.459019        -107.152         0.577844         126.134         0.577898         126.135         0.459187        -107.137
80.46                   0.462085        -108.036         0.580595         125.275         0.580654         125.276         0.462249        -108.021
80.495                   0.46523        -108.966          0.58305         124.389         0.583111         124.391          0.46539        -108.951
80.53                   0.468498        -109.957         0.585119         123.466         0.585182         123.467          0.46865        -109.943
80.565                  0.471969        -111.043         0.586636         122.484         0.586701         122.485         0.472112        -111.028
80.6                    0.475819        -112.288          0.58724         121.396         0.587303         121.398         0.475946        -112.273
80.635                  0.480461        -113.867         0.585959         120.086         0.586018         120.088         0.480557        -113.851
80.67                   0.487089        -116.411         0.579038         118.148         0.579081         118.152         0.487107        -116.391
80.705                  0.496862        -125.059         0.529422         112.902         0.529387         112.928         0.496467        -125.012
80.74                   0.407548        -102.028         0.634822         129.956          0.63481         129.943         0.408287         -102.08
80.775                  0.463677        -110.572           0.6238         122.064         0.623878         122.059         0.464086        -110.583
80.81                   0.474151        -113.165         0.619635         119.897         0.619711         119.893         0.474494        -113.171
80.845                  0.479577        -114.806         0.618415         118.528         0.618487         118.524         0.479893         -114.81
80.88                   0.483432         -116.13         0.618254         117.421          0.61832         117.418         0.483736        -116.134
80.915                  0.486571        -117.313         0.618538         116.434         0.618599         116.431         0.486868        -117.317
80.95                   0.489303        -118.422         0.619017         115.512         0.619072          115.51         0.489595        -118.426
80.985                  0.491766        -119.487          0.61957         114.632         0.619619          114.63         0.492056        -119.493
81.02                   0.494032        -120.526         0.620134         113.781         0.620177         113.779          0.49432        -120.532
81.055                  0.496142        -121.547         0.620674          112.95         0.620711         112.948         0.496429        -121.554
81.09                    0.49812        -122.556         0.621168         112.136         0.621199         112.135         0.498407        -122.565
81.125                  0.499985        -123.556         0.621605         111.336         0.621631         111.336          0.50027        -123.566
81.16                   0.501747         -124.55         0.621979         110.549         0.621999         110.549         0.502031        -124.561
81.195                  0.503415        -125.538         0.622285         109.772         0.622301         109.773         0.503698        -125.551
81.23                   0.504997        -126.523         0.622523         109.006         0.622535         109.007         0.505278        -126.536
81.265                  0.506497        -127.503         0.622693         108.248         0.622701         108.251         0.506776        -127.518
81.3                    0.507922        -128.481         0.622796           107.5         0.622801         107.503         0.508197        -128.497
81.335                  0.509275        -129.455         0.622833          106.76         0.622837         106.764         0.509546        -129.472
81.37                    0.51056        -130.427         0.622809         106.028         0.622811         106.033         0.510827        -130.445
81.405                  0.511781        -131.395         0.622724         105.305         0.622726         105.311         0.512043        -131.415
81.44                   0.512941        -132.361         0.622582         104.589         0.622584         104.596         0.513198        -132.382
81.475                  0.514044        -133.324         0.622386         103.881         0.622389         103.889         0.514294        -133.346
81.51                   0.515092        -134.285         0.622138         103.181         0.622144         103.189         0.515336        -134.308
81.545                   0.51609        -135.243         0.621842         102.487         0.621851         102.497         0.516326        -135.266
81.58                   0.517038        -136.197         0.621501         101.801         0.621513         101.811         0.517267        -136.222
81.615                  0.517942        -137.149         0.621118         101.122         0.621134         101.133         0.518162        -137.175
81.65                   0.518803        -138.098         0.620695          100.45         0.620716         100.462         0.519014        -138.124
81.685                  0.519624        -139.045         0.620235         99.7853         0.620262         99.7976         0.519826        -139.071
81.72                   0.520407        -139.988         0.619741         99.1269         0.619774         99.1398           0.5206        -140.015
81.755                  0.521156        -140.928         0.619216         98.4752         0.619255         98.4885         0.521339        -140.956
81.79                   0.521873        -141.865         0.618662         97.8299         0.618707         97.8437         0.522046        -141.893
81.825                   0.52256          -142.8         0.618081          97.191         0.618133         97.2051         0.522723        -142.828
81.86                   0.523219        -143.731         0.617475         96.5584         0.617534         96.5728         0.523372         -143.76
81.895                  0.523854         -144.66         0.616847         95.9319         0.616914         95.9465         0.523997        -144.688