! TOUCHSTONE file generated by CST MICROWAVE STUDIO
! Date and time: Wed Feb  7 21:13:29 2024
! Project name: aire_des.cst
! Header version: 2018
! Port assignment regex: !\s*Touchstone port\s*([0-9]+)\s*=\s*(CST MWS port|CST DS port)\s*([0-9]+|Zmin|Zmax)\s*\(\"(.*)\"\)(\s*mode\s*([0-9]+))?.*
! Touchstone port assignment:
! Touchstone port 1 = CST MWS port 1 ("")
! Touchstone port 2 = CST MWS port 2 ("")
# GHz S MA R 376.7
75                      0.606189         12.6617         0.436648         158.829         0.436695         158.831         0.606412         12.6639
75.035                  0.605084         11.5164         0.435723         158.231         0.435758          158.23          0.60527         11.5162
75.07                   0.603875         10.3779         0.434659         157.632         0.434682         157.629         0.604022         10.3756
75.105                  0.602567         9.24665         0.433458         157.033          0.43347          157.03         0.602673         9.24247
75.14                   0.601164         8.12291         0.432121         156.437         0.432125         156.433         0.601229         8.11722
75.175                  0.599672         7.00706         0.430654         155.844         0.430651         155.841         0.599695         7.00017
75.21                   0.598095         5.89939          0.42906         155.257         0.429054         155.254         0.598077         5.89163
75.245                  0.596438         4.80022         0.427345         154.675         0.427338         154.673         0.596381         4.79187
75.28                   0.594707         3.70978         0.425517         154.101         0.425512           154.1         0.594611         3.70116
75.315                  0.592906         2.62835         0.423582         153.536         0.423582         153.536         0.592773         2.61972
75.35                    0.59104         1.55613          0.42155          152.98         0.421557         152.981         0.590872         1.54774
75.385                  0.589113        0.493337          0.41943         152.435         0.419445         152.437         0.588912        0.485426
75.42                    0.58713        -0.55982         0.417231         151.901         0.417256         151.904           0.5869       -0.567055
75.455                  0.585096        -1.60315         0.414964          151.38            0.415         151.383         0.584837        -1.60953
75.49                   0.583013        -2.63646         0.412639         150.871         0.412686         150.874          0.58273        -2.64184
75.525                  0.580885        -3.65954         0.410268         150.374         0.410325         150.377          0.58058        -3.66381
75.56                   0.578716        -4.67217         0.407861         149.891         0.407928         149.894         0.578391        -4.67524
75.595                  0.576507        -5.67412          0.40543         149.421         0.405506         149.423         0.576166        -5.67591
75.63                   0.574262        -6.66509         0.402987         148.964          0.40307         148.965         0.573907        -6.66558
75.665                  0.571981        -7.64475         0.400542         148.519         0.400631          148.52         0.571615        -7.64391
75.7                    0.569666        -8.61269         0.398109         148.087         0.398202         148.087         0.569291        -8.61054
75.735                  0.567316         -9.5684         0.395699         147.666         0.395794         147.665         0.566936        -9.56495
75.77                   0.564932        -10.5112         0.393325         147.255          0.39342         147.253         0.564547        -10.5065
75.805                  0.562511        -11.4404         0.390999         146.853         0.391094          146.85         0.562124        -11.4345
75.84                    0.56005        -12.3547         0.388738         146.458         0.388829         146.454         0.559664        -12.3477
75.875                  0.557546         -13.253         0.386555         146.069         0.386642         146.064         0.557162        -13.2449
75.91                   0.554992        -14.1333         0.384469         145.681          0.38455         145.675         0.554611        -14.1243
75.945                   0.55238        -14.9934         0.382499         145.293         0.382575         145.286         0.552004        -14.9835
75.98                   0.549699        -15.8299         0.380671         144.898         0.380739         144.891         0.549329        -15.8193
76.015                  0.546932        -16.6386         0.379014         144.491         0.379074         144.483         0.546571        -16.6273
76.05                   0.544062        -17.4132         0.377566         144.063         0.377619         144.056         0.543709        -17.4013
76.085                  0.541059         -18.145         0.376379         143.604         0.376424         143.596         0.540717        -18.1327
76.12                   0.537888         -18.821         0.375524         143.096          0.37556         143.088         0.537558        -18.8085
76.155                  0.534499        -19.4215         0.375101         142.514          0.37513         142.507         0.534183        -19.4087
76.19                   0.530827        -19.9144         0.375264          141.82         0.375286         141.813         0.530528        -19.9017
76.225                   0.52679        -20.2457         0.376256         140.949         0.376272         140.943         0.526511        -20.2334
76.26                   0.522301        -20.3158         0.378487         139.785         0.378498         139.781         0.522048        -20.3043
76.295                  0.517382        -19.9233         0.382706           138.1         0.382712         138.096         0.517162        -19.9136
76.33                   0.512741        -18.6028         0.390397          135.36         0.390399         135.357         0.512567        -18.5969
76.365                  0.513738        -15.1029         0.404617         130.031         0.404616         130.029         0.513618        -15.1068
76.4                    0.568409        -6.56891         0.426071         115.609         0.426071         115.609         0.568242        -6.59581
76.435                   0.89186        -16.8401         0.225922         60.3024         0.225922         60.3024         0.891285        -16.8827
76.47                   0.716053        -36.8853         0.164566         169.266         0.164572         169.263         0.715094        -36.9055
76.505                  0.622773        -37.6457         0.248894         159.953         0.248895         159.952         0.621996         -37.644
76.54                   0.587353        -37.3616         0.277395         155.663         0.277395         155.663         0.586686        -37.3521
76.575                  0.569219        -37.3467         0.290671         153.355         0.290671         153.355         0.568613        -37.3335
76.61                   0.557983        -37.5791          0.29793         151.937         0.297931         151.938         0.557415        -37.5638
76.645                  0.550105        -37.9791         0.302263         150.991         0.302265         150.993         0.549562        -37.9623
76.68                   0.544093        -38.4912         0.304982         150.325         0.304985         150.327         0.543566        -38.4732
76.715                  0.539219        -39.0802         0.306734         149.841         0.306738         149.843         0.538703        -39.0612
76.75                   0.535087        -39.7237         0.307876          149.48         0.307881         149.482         0.534579        -39.7035
76.785                  0.531467        -40.4065          0.30862          149.21         0.308625         149.212         0.530963        -40.3853
76.82                   0.528215        -41.1186         0.309097         149.006         0.309104         149.008         0.527713        -41.0963
76.855                  0.525234        -41.8528         0.309398         148.854         0.309404         148.855         0.524734        -41.8293
76.89                   0.522462        -42.6039         0.309582         148.743         0.309588         148.744         0.521961        -42.5792
76.925                  0.519851         -43.368         0.309692         148.664         0.309697         148.665         0.519349        -43.3421
76.96                    0.51737        -44.1425          0.30976         148.613         0.309764         148.614         0.516866        -44.1151
76.995                  0.514993        -44.9249         0.309809         148.584         0.309811         148.585         0.514486         -44.896
77.03                   0.512701        -45.7136         0.309856         148.574         0.309856         148.574         0.512191        -45.6832
77.065                   0.51048        -46.5072         0.309916         148.579         0.309914         148.579         0.509967        -46.4752
77.1                    0.508318        -47.3045             0.31         148.598         0.309994         148.597         0.507801        -47.2708
77.135                  0.506206        -48.1048         0.310114         148.628         0.310105         148.627         0.505685        -48.0693
77.17                   0.504136        -48.9072         0.310267         148.667         0.310254         148.666         0.503611        -48.8698
77.205                  0.502103         -49.711         0.310463         148.714         0.310446         148.713         0.501574        -49.6717
77.24                     0.5001        -50.5158         0.310706         148.768         0.310685         148.767         0.499568        -50.4745
77.275                  0.498124        -51.3211         0.311001         148.827         0.310976         148.826         0.497588        -51.2777
77.31                   0.496172        -52.1264         0.311349         148.891          0.31132          148.89         0.495632         -52.081
77.345                  0.494239        -52.9314         0.311753         148.957          0.31172         148.957         0.493696        -52.8838
77.38                   0.492323        -53.7358         0.312214         149.027         0.312177         149.027         0.491777         -53.686
77.415                  0.490422        -54.5392         0.312735         149.098         0.312694         149.099         0.489873        -54.4873
77.45                   0.488535        -55.3415         0.313315          149.17         0.313272         149.172         0.487983        -55.2873
77.485                  0.486658        -56.1423         0.313956         149.243          0.31391         149.245         0.486104        -56.0858
77.52                   0.484791        -56.9414         0.314659         149.315          0.31461         149.318         0.484236        -56.8827
77.555                  0.482933        -57.7386         0.315424         149.387         0.315373          149.39         0.482376        -57.6776
77.59                   0.481081        -58.5337          0.31625         149.458         0.316198         149.462         0.480523        -58.4704
77.625                  0.479236        -59.3264         0.317139         149.526         0.317085         149.531         0.478678        -59.2609
77.66                   0.477396        -60.1166          0.31809         149.593         0.318036         149.598         0.476838        -60.0489
77.695                  0.475561        -60.9041         0.319103         149.657          0.31905         149.663         0.475004        -60.8341
77.73                    0.47373        -61.6886         0.320179         149.718         0.320126         149.725         0.473174        -61.6165
77.765                  0.471903        -62.4701         0.321317         149.776         0.321265         149.784         0.471349        -62.3957
77.8                    0.470079        -63.2481         0.322517          149.83         0.322467         149.839         0.469527        -63.1717
77.835                  0.468258        -64.0227          0.32378         149.881         0.323731          149.89         0.467708        -63.9442
77.87                   0.466439        -64.7936         0.325104         149.927         0.325058         149.937         0.465893         -64.713
77.905                  0.464623        -65.5606          0.32649         149.969         0.326447         149.979         0.464081         -65.478
77.94                    0.46281        -66.3234         0.327939         150.007         0.327898         150.017         0.462273         -66.239
77.975                  0.460999         -67.082         0.329449         150.039         0.329412          150.05         0.460467        -66.9957
78.01                   0.459191         -67.836         0.331022         150.067         0.330987         150.078         0.458665        -67.7479
78.045                  0.457386        -68.5854         0.332656          150.09         0.332626         150.101         0.456866        -68.4956
78.08                   0.455584        -69.3298         0.334353         150.107         0.334326         150.118         0.455072        -69.2383
78.115                  0.453786        -70.0691         0.336113         150.119          0.33609          150.13         0.453281        -69.9761
78.15                   0.451992         -70.803         0.337936         150.125         0.337916         150.136         0.451496        -70.7085
78.185                  0.450203        -71.5313         0.339822         150.125         0.339806         150.137         0.449716        -71.4354
78.22                    0.44842        -72.2539         0.341772          150.12         0.341759         150.131         0.447942        -72.1566
78.255                  0.446643        -72.9704         0.343786         150.108         0.343777         150.119         0.446176        -72.8719
78.29                   0.444874        -73.6806         0.345865          150.09         0.345859         150.101         0.444417        -73.5809
78.325                  0.443113        -74.3844          0.34801         150.066         0.348007         150.076         0.442667        -74.2836
78.36                   0.441362        -75.0814         0.350221         150.035         0.350222         150.045         0.440928        -74.9795
78.395                  0.439622        -75.7714           0.3525         149.998         0.352503         150.008           0.4392        -75.6686
78.43                   0.437894        -76.4542         0.354847         149.954         0.354852         149.963         0.437484        -76.3506
78.465                  0.436179        -77.1295         0.357263         149.902         0.357271         149.911         0.435783        -77.0252
78.5                    0.434481        -77.7972         0.359749         149.844         0.359759         149.852         0.434099        -77.6921
78.535                    0.4328        -78.4569         0.362307         149.778         0.362318         149.786         0.432432        -78.3512
78.57                   0.431139        -79.1084         0.364937         149.704          0.36495         149.711         0.430785        -79.0022
78.605                  0.429499        -79.7515         0.367641         149.623         0.367655         149.629          0.42916        -79.6449
78.64                   0.427884         -80.386          0.37042         149.533         0.370435         149.539          0.42756         -80.279
78.675                  0.426295        -81.0117         0.373275         149.435          0.37329         149.441         0.425986        -80.9043
78.71                   0.424735        -81.6282         0.376207         149.328         0.376223         149.334         0.424443        -81.5207
78.745                  0.423208        -82.2355         0.379218         149.213         0.379234         149.218         0.422932        -82.1279
78.78                   0.421717        -82.8334         0.382309         149.088         0.382325         149.092         0.421456        -82.7257
78.815                  0.420264        -83.4217         0.385481         148.954         0.385497         148.958          0.42002         -83.314
78.85                   0.418853        -84.0003         0.388735         148.809         0.388751         148.813         0.418626        -83.8927
78.885                  0.417489         -84.569         0.392072         148.654         0.392087         148.658         0.417279        -84.4617
78.92                   0.416175        -85.1279         0.395493         148.489         0.395508         148.492         0.415981        -85.0208
78.955                  0.414915        -85.6768         0.398999         148.313         0.399013         148.315         0.414738        -85.5701
78.99                   0.413713        -86.2157         0.402591         148.125         0.402604         148.127         0.413554        -86.1095
79.025                  0.412574        -86.7448         0.406268         147.925         0.406281         147.927         0.412432         -86.639
79.06                   0.411503        -87.2641         0.410032         147.713         0.410044         147.714         0.411378        -87.1589
79.095                  0.410505        -87.7737         0.413882         147.487         0.413893         147.489         0.410397        -87.6692
79.13                   0.409584        -88.2738         0.417818         147.249         0.417829         147.251         0.409493        -88.1701
79.165                  0.408745        -88.7648          0.42184         146.997          0.42185         146.998         0.408671         -88.662
79.2                    0.407995        -89.2469         0.425947         146.731         0.425955         146.732         0.407937        -89.1451
79.235                  0.407337        -89.7207         0.430137          146.45         0.430145         146.451         0.407296        -89.6199
79.27                   0.406778        -90.1865          0.43441         146.154         0.434416         146.155         0.406754        -90.0868
79.305                  0.406323         -90.645         0.438762         145.843         0.438768         145.843         0.406314        -90.5465
79.34                   0.405976        -91.0969         0.443193         145.515         0.443197         145.515         0.405983        -90.9997
79.375                  0.405743        -91.5428         0.447698         145.171         0.447702         145.171         0.405766         -91.447
79.41                   0.405629        -91.9837         0.452275          144.81         0.452278          144.81         0.405667        -91.8893
79.445                  0.405638        -92.4204         0.456919         144.432         0.456922         144.432         0.405691        -92.3276
79.48                   0.405774         -92.854         0.461627         144.036         0.461629         144.036         0.405842        -92.7628
79.515                  0.406043        -93.2856         0.466393         143.623         0.466394         143.623         0.406124        -93.1961
79.55                   0.406447        -93.7164         0.471212         143.191         0.471213         143.191         0.406541        -93.6286
79.585                  0.406988        -94.1476         0.476078         142.741         0.476078         142.741         0.407096        -94.0616
79.62                   0.407671        -94.5804         0.480985         142.272         0.480984         142.272         0.407791        -94.4963
79.655                  0.408496        -95.0164         0.485924         141.784         0.485923         141.784         0.408628        -94.9342
79.69                   0.409465        -95.4568         0.490889         141.278         0.490888         141.277         0.409608        -95.3766
79.725                  0.410578        -95.9032         0.495872         140.752          0.49587         140.752         0.410732         -95.825
79.76                   0.411835        -96.3569         0.500863         140.208          0.50086         140.207         0.411999        -96.2808
79.795                  0.413235        -96.8194         0.505853         139.644         0.505851         139.644         0.413408        -96.7454
79.83                   0.414775        -97.2922         0.510834         139.062         0.510831         139.062         0.414957        -97.2203
79.865                  0.416453        -97.7767         0.515795         138.462         0.515791         138.462         0.416643        -97.7068
79.9                    0.418266        -98.2742         0.520725         137.843         0.520722         137.843         0.418463        -98.2065
79.935                  0.420208         -98.786         0.525616         137.206         0.525611         137.206         0.420411        -98.7204
79.97                   0.422275        -99.3135         0.530455         136.552          0.53045         136.552         0.422484          -99.25
80.005                   0.42446        -99.8578         0.535231          135.88         0.535227          135.88         0.424674        -99.7964
80.04                   0.426758         -100.42         0.539936         135.192         0.539931         135.192         0.426976        -100.361
80.075                   0.42916        -101.001         0.544556         134.487         0.544551         134.487         0.429382        -100.944
80.11                    0.43166        -101.602         0.549081         133.767         0.549077         133.767         0.431885        -101.547
80.145                   0.43425        -102.224         0.553501         133.031         0.553497         133.031         0.434476         -102.17
80.18                   0.436922        -102.867         0.557804          132.28           0.5578          132.28         0.437149        -102.816
80.215                  0.439668        -103.533         0.561979         131.515         0.561975         131.515         0.439896        -103.483
80.25                   0.442481        -104.222         0.566014         130.736         0.566011         130.736         0.442708        -104.174
80.285                  0.445355        -104.936         0.569898         129.943         0.569895         129.943         0.445581        -104.889
80.32                   0.448284        -105.675         0.573618         129.135         0.573615         129.135         0.448507         -105.63
80.355                  0.451264        -106.441         0.577158         128.314         0.577155         128.314         0.451485        -106.398
80.39                   0.454297        -107.236         0.580501         127.476         0.580499         127.476         0.454513        -107.195
80.425                  0.457385        -108.065         0.583624         126.622         0.583622         126.622         0.457596        -108.024
80.46                   0.460541        -108.931         0.586494         125.746         0.586493         125.746         0.460745        -108.892
80.495                  0.463789        -109.845         0.589061         124.844          0.58906         124.844         0.463985        -109.807
80.53                    0.46718        -110.822         0.591241         123.903          0.59124         123.903         0.467364        -110.784
80.565                  0.470811        -111.893         0.592875         122.903         0.592875         122.903         0.470979        -111.855
80.6                    0.474893        -113.124         0.593619         121.794         0.593619         121.794         0.475039        -113.085
80.635                  0.479959        -114.688         0.592556         120.456         0.592556         120.456         0.480068        -114.646
80.67                   0.487739        -117.213         0.586163         118.452         0.586161         118.452         0.487767        -117.163
80.705                  0.506665        -126.031         0.539135         112.443         0.539122         112.444         0.506336        -125.936
80.74                   0.411587        -102.244         0.649567         129.952         0.649567         129.952         0.412369        -102.303
80.775                  0.462313        -111.385         0.630693         122.318         0.630699         122.318         0.462707        -111.388
80.81                   0.472534        -113.983         0.626066         120.183         0.626073         120.183         0.472844        -113.976
80.845                  0.477968        -115.617         0.624751         118.816         0.624758         118.816         0.478238        -115.608
80.88                    0.48186        -116.935         0.624557         117.704         0.624564         117.703         0.482104        -116.924
80.915                  0.485032        -118.111         0.624825         116.708         0.624832         116.708         0.485257        -118.099
80.95                   0.487789        -119.214         0.625291         115.778         0.625298         115.778         0.487998        -119.202
80.985                  0.490269        -120.273         0.625831         114.889         0.625839         114.889         0.490464        -120.261
81.02                   0.492544        -121.307         0.626382         114.029         0.626389         114.028         0.492727        -121.295
81.055                  0.494656        -122.322         0.626906         113.189         0.626913         113.189         0.494827        -122.311
81.09                   0.496631        -123.326         0.627384         112.367         0.627391         112.367         0.496791        -123.315
81.125                  0.498486        -124.321         0.627805          111.56         0.627812         111.559         0.498635         -124.31
81.16                   0.500235        -125.309         0.628162         110.765         0.628168         110.764         0.500372        -125.298
81.195                  0.501885        -126.292         0.628452         109.981         0.628458          109.98         0.502012        -126.281
81.23                   0.503445         -127.27         0.628674         109.207          0.62868         109.206         0.503562         -127.26
81.265                   0.50492        -128.245         0.628829         108.443         0.628835         108.442         0.505027        -128.235
81.3                    0.506317        -129.216         0.628918         107.689         0.628924         107.688         0.506414        -129.206
81.335                   0.50764        -130.184         0.628945         106.943         0.628949         106.942         0.507727        -130.174
81.37                   0.508893        -131.149          0.62891         106.205         0.628914         106.204          0.50897        -131.139
81.405                   0.51008         -132.11         0.628817         105.476         0.628821         105.475         0.510147        -132.101
81.44                   0.511205        -133.069         0.628668         104.754         0.628672         104.754         0.511263        -133.059
81.475                  0.512272        -134.025         0.628468         104.041         0.628471          104.04         0.512321        -134.015
81.51                   0.513285        -134.977         0.628218         103.335         0.628221         103.334         0.513324        -134.967
81.545                  0.514245        -135.927         0.627922         102.636         0.627924         102.635         0.514275        -135.917
81.58                   0.515158        -136.873         0.627583         101.944         0.627585         101.944         0.515178        -136.863
81.615                  0.516025        -137.816         0.627203          101.26         0.627205         101.259         0.516037        -137.806
81.65                   0.516849        -138.757         0.626786         100.582         0.626787         100.582         0.516853        -138.746
81.685                  0.517635        -139.694         0.626333         99.9116         0.626334         99.9112          0.51763        -139.683
81.72                   0.518384        -140.628         0.625848         99.2474         0.625848          99.247         0.518371        -140.617
81.755                  0.519099        -141.558         0.625332         98.5896         0.625332         98.5893         0.519078        -141.547
81.79                   0.519784        -142.486         0.624788         97.9382         0.624789          97.938         0.519755        -142.475
81.825                  0.520439         -143.41         0.624219         97.2929         0.624219         97.2928         0.520403        -143.399
81.86                   0.521069        -144.331         0.623626         96.6538         0.623626         96.6538         0.521025         -144.32
81.895                  0.521675         -145.25         0.623011         96.0206         0.623011         96.0207         0.521624        -145.238