! TOUCHSTONE file generated by CST MICROWAVE STUDIO
! Date and time: Fri Feb  2 21:30:44 2024
! Project name: aire_def.cst
! Header version: 2018
! Port assignment regex: !\s*Touchstone port\s*([0-9]+)\s*=\s*(CST MWS port|CST DS port)\s*([0-9]+|Zmin|Zmax)\s*\(\"(.*)\"\)(\s*mode\s*([0-9]+))?.*
! Touchstone port assignment:
! Touchstone port 1 = CST MWS port 1 ("")
! Touchstone port 2 = CST MWS port 2 ("")
# GHz S MA R 376.7
75                   6.30774e-05         12.1995         0.999953         179.398                1         179.401      5.46984e-05        -150.912
75.035               6.13577e-05         8.68312         0.999957         178.978                1         178.981      5.77169e-05        -150.633
75.07                5.98332e-05         4.96875         0.999961         178.558                1         178.561      6.07416e-05        -150.365
75.105               5.85242e-05          1.0644         0.999964         178.138         0.999996          178.14      6.37723e-05        -150.107
75.14                5.74504e-05        -3.01499         0.999967         177.718         0.999987          177.72       6.6809e-05        -149.858
75.175               5.66304e-05        -7.24709          0.99997         177.298         0.999979           177.3      6.98521e-05        -149.616
75.21                5.60804e-05        -11.6021         0.999973         176.878         0.999971         176.879      7.29015e-05         -149.38
75.245               5.58139e-05        -16.0438         0.999976         176.458         0.999964         176.459      7.59573e-05         -149.15
75.28                5.58402e-05        -20.5307         0.999978         176.038         0.999957         176.039      7.90195e-05        -148.923
75.315               5.61643e-05        -25.0187         0.999981         175.618          0.99995         175.618      8.20882e-05        -148.701
75.35                5.67865e-05         -29.464         0.999983         175.198         0.999944         175.198      8.51635e-05        -148.481
75.385               5.77024e-05        -33.8252         0.999985         174.778         0.999937         174.778      8.82454e-05        -148.264
75.42                5.89035e-05        -38.0662         0.999987         174.358         0.999932         174.358      9.13339e-05         -148.05
75.455               6.03779e-05        -42.1575         0.999989         173.938         0.999926         173.937      9.44292e-05        -147.837
75.49                6.21111e-05        -46.0771         0.999991         173.518         0.999921         173.517      9.75313e-05        -147.625
75.525               6.40869e-05        -49.8102         0.999993         173.098         0.999916         173.097       0.00010064        -147.415
75.56                6.62883e-05        -53.3489         0.999994         172.678         0.999912         172.677      0.000103756        -147.205
75.595               6.86981e-05        -56.6914         0.999996         172.258         0.999908         172.256      0.000106879        -146.996
75.63                7.12997e-05          -59.84         0.999997         171.838         0.999904         171.836      0.000110008        -146.788
75.665               7.40769e-05        -62.8008         0.999998         171.418           0.9999         171.416      0.000113145         -146.58
75.7                 7.70148e-05        -65.5824         0.999999         170.998         0.999897         170.996      0.000116289        -146.372
75.735               8.00997e-05        -68.1947                1         170.577         0.999894         170.576       0.00011944        -146.163
75.77                 8.3319e-05        -70.6485                1         170.157         0.999891         170.156      0.000122598        -145.955
75.805               8.66612e-05         -72.955                1         169.737         0.999888         169.736      0.000125763        -145.746
75.84                9.01161e-05        -75.1253                1         169.317         0.999886         169.315      0.000128936        -145.537
75.875               9.36746e-05          -77.17                1         168.897         0.999884         168.895      0.000132116        -145.328
75.91                9.73284e-05        -79.0992                1         168.477         0.999882         168.475      0.000135303        -145.118
75.945                0.00010107        -80.9225                1         168.057          0.99988         168.055      0.000138497        -144.907
75.98                0.000104894        -82.6488                1         167.637         0.999879         167.635      0.000141699        -144.695
76.015               0.000108793        -84.2862                1         167.217         0.999878         167.215      0.000144908        -144.483
76.05                0.000112762        -85.8423                1         166.797         0.999877         166.795      0.000148125         -144.27
76.085               0.000116798        -87.3238                1         166.377         0.999876         166.375      0.000151349        -144.055
76.12                0.000120895        -88.7371                1         165.957         0.999876         165.955       0.00015458         -143.84
76.155                0.00012505        -90.0878                1         165.537         0.999875         165.535      0.000157818        -143.624
76.19                 0.00012926        -91.3811                1         165.117         0.999875         165.115      0.000161064        -143.407
76.225               0.000133522        -92.6218                1         164.696         0.999875         164.695      0.000164317        -143.189
76.26                0.000137832         -93.814                1         164.276         0.999875         164.274      0.000167578         -142.97
76.295               0.000142189        -94.9617                1         163.856         0.999876         163.854      0.000170845        -142.749
76.33                 0.00014659        -96.0684                1         163.436         0.999876         163.434       0.00017412        -142.527
76.365               0.000151033        -97.1374                1         163.016         0.999877         163.014      0.000177402        -142.305
76.4                 0.000155516        -98.1714                1         162.596         0.999878         162.594      0.000180691        -142.081
76.435               0.000160038        -99.1733                1         162.176         0.999879         162.174      0.000183987        -141.855
76.47                0.000164596        -100.145         0.999999         161.756          0.99988         161.754       0.00018729        -141.629
76.505                0.00016919         -101.09         0.999998         161.336         0.999882         161.334        0.0001906        -141.401
76.54                0.000173817        -102.009         0.999997         160.915         0.999883         160.914      0.000193917        -141.172
76.575               0.000178477        -102.904         0.999996         160.495         0.999885         160.494       0.00019724        -140.942
76.61                0.000183169        -103.778         0.999995         160.075         0.999886         160.074       0.00020057         -140.71
76.645               0.000187891        -104.631         0.999994         159.655         0.999888         159.655      0.000203907        -140.478
76.68                0.000192642        -105.465         0.999993         159.235          0.99989         159.235       0.00020725        -140.244
76.715                0.00019742        -106.281         0.999992         158.815         0.999892         158.815      0.000210599        -140.008
76.75                0.000202226        -107.081         0.999991         158.395         0.999895         158.395      0.000213954        -139.772
76.785               0.000207058        -107.866          0.99999         157.975         0.999897         157.975      0.000217315        -139.534
76.82                0.000211915        -108.636         0.999988         157.555           0.9999         157.555      0.000220682        -139.294
76.855               0.000216797        -109.393         0.999987         157.134         0.999902         157.135      0.000224055        -139.054
76.89                0.000221702        -110.137         0.999986         156.714         0.999905         156.715      0.000227433        -138.812
76.925               0.000226629         -110.87         0.999984         156.294         0.999908         156.295      0.000230816        -138.569
76.96                0.000231578        -111.592         0.999983         155.874          0.99991         155.875      0.000234204        -138.325
76.995               0.000236548        -112.303         0.999982         155.454         0.999913         155.455      0.000237597        -138.079
77.03                0.000241539        -113.005          0.99998         155.034         0.999916         155.035      0.000240994        -137.832
77.065               0.000246548        -113.699         0.999979         154.614          0.99992         154.615      0.000244396        -137.584
77.1                 0.000251577        -114.383         0.999977         154.194         0.999923         154.195      0.000247801        -137.335
77.135               0.000256623         -115.06         0.999976         153.773         0.999926         153.775      0.000251211        -137.085
77.17                0.000261687         -115.73         0.999974         153.353         0.999929         153.355      0.000254624        -136.833
77.205               0.000266767        -116.393         0.999973         152.933         0.999933         152.935       0.00025804         -136.58
77.24                0.000271862        -117.049         0.999971         152.513         0.999936         152.516      0.000261459        -136.326
77.275               0.000276973        -117.699          0.99997         152.093          0.99994         152.096      0.000264881        -136.071
77.31                0.000282098        -118.343         0.999968         151.673         0.999943         151.676      0.000268305        -135.815
77.345               0.000287237        -118.982         0.999966         151.253         0.999947         151.256      0.000271731        -135.558
77.38                0.000292388        -119.616         0.999965         150.833         0.999951         150.836      0.000275158        -135.299
77.415               0.000297552        -120.245         0.999963         150.412         0.999955         150.416      0.000278586         -135.04
77.45                0.000302727         -120.87         0.999961         149.992         0.999958         149.996      0.000282015        -134.779
77.485               0.000307913        -121.491          0.99996         149.572         0.999962         149.576      0.000285445        -134.518
77.52                0.000313109        -122.108         0.999958         149.152         0.999966         149.156      0.000288874        -134.255
77.555               0.000318314        -122.721         0.999956         148.732          0.99997         148.736      0.000292303        -133.992
77.59                0.000323527         -123.33         0.999955         148.312         0.999974         148.316      0.000295731        -133.728
77.625               0.000328749        -123.937         0.999953         147.892         0.999978         147.896      0.000299158        -133.463
77.66                0.000333978         -124.54         0.999951         147.471         0.999982         147.477      0.000302582        -133.196
77.695               0.000339213         -125.14          0.99995         147.051         0.999986         147.057      0.000306004         -132.93
77.73                0.000344454        -125.738         0.999948         146.631          0.99999         146.637      0.000309424        -132.662
77.765               0.000349699        -126.334         0.999946         146.211         0.999994         146.217       0.00031284        -132.393
77.8                 0.000354949        -126.926         0.999945         145.791         0.999998         145.797      0.000316251        -132.124
77.835               0.000360203        -127.517         0.999943         145.371                1         145.377      0.000319659        -131.854
77.87                0.000365459        -128.106         0.999941         144.951                1         144.957      0.000323061        -131.584
77.905               0.000370717        -128.692          0.99994          144.53                1         144.537      0.000326458        -131.313
77.94                0.000375976        -129.277         0.999938          144.11                1         144.117      0.000329849        -131.041
77.975               0.000381236         -129.86         0.999936          143.69                1         143.697      0.000333232        -130.769
78.01                0.000386496        -130.442         0.999935          143.27                1         143.278      0.000336608        -130.496
78.045               0.000391754        -131.022         0.999933          142.85                1         142.858      0.000339977        -130.223
78.08                 0.00039701        -131.601         0.999931          142.43                1         142.438      0.000343336        -129.949
78.115               0.000402264        -132.178          0.99993          142.01                1         142.018      0.000346686        -129.675
78.15                0.000407515        -132.754         0.999928         141.589                1         141.598      0.000350026        -129.401
78.185               0.000412761        -133.329         0.999926         141.169                1         141.178      0.000353355        -129.126
78.22                0.000418002        -133.903         0.999925         140.749                1         140.758      0.000356673        -128.851
78.255               0.000423238        -134.476         0.999923         140.329                1         140.338      0.000359979        -128.577
78.29                0.000428467        -135.048         0.999922         139.909                1         139.918      0.000363272        -128.302
78.325               0.000433688        -135.619          0.99992         139.489                1         139.498      0.000366551        -128.027
78.36                0.000438902         -136.19         0.999919         139.069                1         139.078      0.000369816        -127.751
78.395               0.000444106         -136.76         0.999917         138.648                1         138.658      0.000373066        -127.477
78.43                0.000449301        -137.329         0.999916         138.228                1         138.239        0.0003763        -127.202
78.465               0.000454485        -137.897         0.999914         137.808                1         137.819      0.000379517        -126.927
78.5                 0.000459658        -138.465         0.999913         137.388                1         137.399      0.000382718        -126.653
78.535               0.000464818        -139.032         0.999911         136.968                1         136.979        0.0003859        -126.378
78.57                0.000469966        -139.599          0.99991         136.548                1         136.559      0.000389063        -126.105
78.605                 0.0004751        -140.166         0.999908         136.128                1         136.139      0.000392207        -125.831
78.64                0.000480219        -140.732         0.999907         135.707                1         135.719       0.00039533        -125.558
78.675               0.000485322        -141.298         0.999906         135.287                1         135.299      0.000398432        -125.286
78.71                 0.00049041        -141.863         0.999904         134.867                1         134.879      0.000401512        -125.015
78.745                0.00049548        -142.428         0.999903         134.447                1         134.459       0.00040457        -124.744
78.78                0.000500532        -142.993         0.999902         134.027                1         134.039      0.000407603        -124.473
78.815               0.000505566        -143.557           0.9999         133.607                1         133.619      0.000410613        -124.204
78.85                 0.00051058        -144.122         0.999899         133.187                1         133.199      0.000413597        -123.936
78.885               0.000515574        -144.686         0.999898         132.766                1         132.779      0.000416555        -123.668
78.92                0.000520546         -145.25         0.999897         132.346                1         132.359      0.000419486        -123.402
78.955               0.000525497        -145.814         0.999895         131.926                1          131.94       0.00042239        -123.136
78.99                0.000530425        -146.377         0.999894         131.506                1          131.52      0.000425265        -122.872
79.025               0.000535329        -146.941         0.999893         131.086                1           131.1      0.000428111         -122.61
79.06                0.000540209        -147.505         0.999892         130.666                1          130.68      0.000430927        -122.348
79.095               0.000545063        -148.068         0.999891         130.245                1          130.26      0.000433713        -122.088
79.13                0.000549892        -148.631          0.99989         129.825                1          129.84      0.000436467         -121.83
79.165               0.000554694        -149.195         0.999889         129.405                1          129.42      0.000439189        -121.573
79.2                 0.000559468        -149.758         0.999888         128.985                1             129      0.000441877        -121.318
79.235               0.000564214        -150.321         0.999887         128.565                1          128.58      0.000444533        -121.064
79.27                0.000568931        -150.884         0.999886         128.145                1          128.16      0.000447153        -120.813
79.305               0.000573617        -151.447         0.999885         127.725                1          127.74      0.000449739        -120.563
79.34                0.000578273        -152.011         0.999884         127.304                1          127.32      0.000452288        -120.316
79.375               0.000582898        -152.574         0.999883         126.884                1           126.9      0.000454802         -120.07
79.41                 0.00058749        -153.137         0.999882         126.464                1          126.48      0.000457278        -119.827
79.445               0.000592049          -153.7         0.999881         126.044                1          126.06      0.000459716        -119.586
79.48                0.000596575        -154.263         0.999881         125.624                1          125.64      0.000462115        -119.348
79.515               0.000601066        -154.827          0.99988         125.204                1          125.22      0.000464476        -119.112
79.55                0.000605522         -155.39         0.999879         124.784                1           124.8      0.000466796        -118.878
79.585               0.000609941        -155.953         0.999878         124.363                1          124.38      0.000469077        -118.647
79.62                0.000614325        -156.516         0.999878         123.943                1          123.96      0.000471316        -118.419
79.655                0.00061867         -157.08         0.999877         123.523                1          123.54      0.000473514        -118.194
79.69                0.000622978        -157.643         0.999876         123.103                1          123.12      0.000475671        -117.971
79.725               0.000627246        -158.206         0.999876         122.683                1           122.7      0.000477784        -117.752
79.76                0.000631475         -158.77         0.999875         122.263                1          122.28      0.000479855        -117.536
79.795               0.000635664        -159.333         0.999875         121.843                1          121.86      0.000481882        -117.323
79.83                0.000639812        -159.897         0.999874         121.422                1          121.44      0.000483866        -117.113
79.865               0.000643919         -160.46         0.999874         121.002                1          121.02      0.000485805        -116.906
79.9                 0.000647983        -161.024         0.999873         120.582                1           120.6        0.0004877        -116.704
79.935               0.000652004        -161.587         0.999873         120.162                1          120.18       0.00048955        -116.504
79.97                0.000655982        -162.151         0.999872         119.742                1          119.76      0.000491354        -116.309
80.005               0.000659916        -162.715         0.999872         119.322                1          119.34      0.000493113        -116.117
80.04                0.000663805        -163.278         0.999872         118.901                1         118.919      0.000494826        -115.929
80.075               0.000667648        -163.842         0.999871         118.481                1         118.499      0.000496493        -115.744
80.11                0.000671446        -164.406         0.999871         118.061                1         118.079      0.000498113        -115.564
80.145               0.000675197        -164.969         0.999871         117.641                1         117.659      0.000499687        -115.388
80.18                  0.0006789        -165.533          0.99987         117.221                1         117.239      0.000501214        -115.217
80.215               0.000682556        -166.097          0.99987         116.801                1         116.819      0.000502694        -115.049
80.25                0.000686164         -166.66          0.99987         116.381                1         116.399      0.000504128        -114.886
80.285               0.000689723        -167.224          0.99987          115.96                1         115.979      0.000505514        -114.728
80.32                0.000693233        -167.788          0.99987          115.54                1         115.559      0.000506853        -114.574
80.355               0.000696692        -168.351          0.99987          115.12                1         115.139      0.000508144        -114.425
80.39                0.000700102        -168.915          0.99987           114.7                1         114.719      0.000509389         -114.28
80.425                0.00070346        -169.479          0.99987          114.28                1         114.299      0.000510586        -114.141
80.46                0.000706767        -170.042         0.999869          113.86                1         113.879      0.000511736        -114.006
80.495               0.000710022        -170.606         0.999869          113.44                1         113.459       0.00051284        -113.876
80.53                0.000713225         -171.17          0.99987         113.019                1         113.038      0.000513896        -113.752
80.565               0.000716375        -171.733          0.99987         112.599                1         112.618      0.000514905        -113.633
80.6                 0.000719471        -172.297          0.99987         112.179                1         112.198      0.000515868        -113.519
80.635               0.000722514         -172.86          0.99987         111.759                1         111.778      0.000516784         -113.41
80.67                0.000725503        -173.424          0.99987         111.339                1         111.358      0.000517654        -113.307
80.705               0.000728437        -173.987          0.99987         110.919                1         110.938      0.000518478         -113.21
80.74                0.000731316         -174.55          0.99987         110.499                1         110.518      0.000519256        -113.118
80.775                0.00073414        -175.113          0.99987         110.078                1         110.098      0.000519989        -113.032
80.81                0.000736908        -175.677         0.999871         109.658                1         109.678      0.000520677        -112.952
80.845               0.000739621         -176.24         0.999871         109.238                1         109.257       0.00052132        -112.878
80.88                0.000742276        -176.803         0.999871         108.818                1         108.837      0.000521918        -112.809
80.915               0.000744875        -177.366         0.999872         108.398                1         108.417      0.000522472        -112.747
80.95                0.000747417        -177.929         0.999872         107.978                1         107.997      0.000522983        -112.691
80.985               0.000749901        -178.492         0.999872         107.558                1         107.577       0.00052345        -112.641
81.02                0.000752328        -179.055         0.999873         107.137                1         107.157      0.000523875        -112.598
81.055               0.000754696        -179.617         0.999873         106.717                1         106.737      0.000524257        -112.561
81.09                0.000757006          179.82         0.999873         106.297                1         106.317      0.000524597         -112.53
81.125               0.000759258         179.257         0.999874         105.877                1         105.896      0.000524897        -112.506
81.16                 0.00076145         178.695         0.999874         105.457                1         105.476      0.000525155        -112.488
81.195               0.000763584         178.133         0.999875         105.037                1         105.056      0.000525373        -112.478
81.23                0.000765658          177.57         0.999875         104.617                1         104.636      0.000525552        -112.474
81.265               0.000767672         177.008         0.999876         104.197                1         104.216      0.000525692        -112.477
81.3                 0.000769627         176.446         0.999876         103.776                1         103.796      0.000525793        -112.487
81.335               0.000771521         175.884         0.999877         103.356                1         103.375      0.000525856        -112.504
81.37                0.000773356         175.322         0.999877         102.936                1         102.955      0.000525882        -112.528
81.405               0.000775129          174.76         0.999878         102.516                1         102.535      0.000525872        -112.559
81.44                0.000776843         174.198         0.999879         102.096                1         102.115      0.000525826        -112.597
81.475               0.000778495         173.636         0.999879         101.676                1         101.695      0.000525745        -112.643
81.51                0.000780086         173.075          0.99988         101.256                1         101.275      0.000525629        -112.696
81.545               0.000781616         172.513         0.999881         100.835                1         100.854       0.00052548        -112.757
81.58                0.000783085         171.952         0.999881         100.415                1         100.434      0.000525298        -112.825
81.615               0.000784493          171.39         0.999882         99.9952                1         100.014      0.000525083          -112.9
81.65                0.000785838         170.829         0.999883         99.5751                1         99.5938      0.000524837        -112.984
81.685               0.000787123         170.268         0.999884         99.1549                1         99.1736       0.00052456        -113.075
81.72                0.000788345         169.707         0.999884         98.7348                1         98.7534      0.000524254        -113.174
81.755               0.000789506         169.146         0.999885         98.3147                1         98.3332      0.000523918         -113.28
81.79                0.000790604         168.585         0.999886         97.8946                1          97.913      0.000523554        -113.395
81.825               0.000791641         168.024         0.999887         97.4744                1         97.4928      0.000523163        -113.518
81.86                0.000792615         167.463         0.999888         97.0543                1         97.0726      0.000522745        -113.648
81.895               0.000793527         166.903         0.999888         96.6342                1         96.6524      0.000522301        -113.787