! TOUCHSTONE file generated by CST MICROWAVE STUDIO
! Date and time: Fri Feb  2 19:08:32 2024
! Project name: aire_def.cst
! Header version: 2018
! Port assignment regex: !\s*Touchstone port\s*([0-9]+)\s*=\s*(CST MWS port|CST DS port)\s*([0-9]+|Zmin|Zmax)\s*\(\"(.*)\"\)(\s*mode\s*([0-9]+))?.*
! Touchstone port assignment:
! Touchstone port 1 = CST MWS port 1 ("")
! Touchstone port 2 = CST MWS port 2 ("")
# GHz S MA R 376.7
50                   0.000160823         13.6283         0.999968         119.569         0.999924         119.568      0.000226337         11.1021
50.007               0.000160696         13.6701         0.999969         119.485         0.999925         119.484      0.000225414         11.1076
50.014               0.000160569         13.7116         0.999969         119.401         0.999926           119.4      0.000224499         11.1129
50.021               0.000160441          13.753          0.99997         119.316         0.999926         119.316      0.000223593          11.118
50.028               0.000160313         13.7941          0.99997         119.232         0.999927         119.232      0.000222695         11.1228
50.035               0.000160184          13.835         0.999971         119.148         0.999928         119.148      0.000221805         11.1275
50.042               0.000160055         13.8756         0.999971         119.064         0.999928         119.064      0.000220923         11.1319
50.049               0.000159925          13.916         0.999972          118.98         0.999929          118.98      0.000220048         11.1361
50.056               0.000159795         13.9562         0.999972         118.896          0.99993         118.896      0.000219182           11.14
50.063               0.000159664         13.9962         0.999973         118.812          0.99993         118.812      0.000218323         11.1438
50.07                0.000159533         14.0359         0.999973         118.728         0.999931         118.728      0.000217472         11.1473
50.077               0.000159402         14.0754         0.999974         118.644         0.999932         118.644      0.000216628         11.1505
50.084                0.00015927         14.1147         0.999974          118.56         0.999932          118.56      0.000215792         11.1536
50.091               0.000159138         14.1537         0.999975         118.476         0.999933         118.476      0.000214963         11.1564
50.098               0.000159005         14.1925         0.999975         118.392         0.999933         118.392      0.000214141          11.159
50.105               0.000158871         14.2311         0.999976         118.308         0.999934         118.308      0.000213327         11.1613
50.112               0.000158738         14.2694         0.999976         118.224         0.999935         118.224      0.000212519         11.1634
50.119               0.000158604         14.3075         0.999977          118.14         0.999935          118.14      0.000211719         11.1653
50.126               0.000158469         14.3454         0.999977         118.056         0.999936         118.056      0.000210925          11.167
50.133               0.000158334          14.383         0.999978         117.972         0.999937         117.972      0.000210138         11.1684
50.14                0.000158198         14.4204         0.999978         117.888         0.999937         117.888      0.000209357         11.1696
50.147               0.000158062         14.4576         0.999979         117.804         0.999938         117.804      0.000208584         11.1705
50.154               0.000157926         14.4946         0.999979          117.72         0.999938          117.72      0.000207816         11.1713
50.161               0.000157789         14.5313          0.99998         117.636         0.999939         117.636      0.000207056         11.1717
50.168               0.000157652         14.5677          0.99998         117.552          0.99994         117.551      0.000206301          11.172
50.175               0.000157514          14.604         0.999981         117.468          0.99994         117.467      0.000205553          11.172
50.182               0.000157376           14.64         0.999981         117.384         0.999941         117.383      0.000204811         11.1718
50.189               0.000157237         14.6757         0.999981           117.3         0.999941         117.299      0.000204075         11.1713
50.196               0.000157098         14.7112         0.999982         117.216         0.999942         117.215      0.000203346         11.1706
50.203               0.000156959         14.7465         0.999982         117.132         0.999942         117.131      0.000202622         11.1697
50.21                0.000156819         14.7816         0.999983         117.048         0.999943         117.047      0.000201904         11.1685
50.217               0.000156679         14.8164         0.999983         116.964         0.999944         116.963      0.000201192         11.1671
50.224               0.000156538          14.851         0.999983          116.88         0.999944         116.879      0.000200486         11.1655
50.231               0.000156397         14.8853         0.999984         116.796         0.999945         116.795      0.000199786         11.1636
50.238               0.000156255         14.9194         0.999984         116.712         0.999945         116.711      0.000199091         11.1614
50.245               0.000156113         14.9533         0.999985         116.628         0.999946         116.627      0.000198402         11.1591
50.252               0.000155971         14.9869         0.999985         116.544         0.999946         116.543      0.000197718         11.1564
50.259               0.000155828         15.0203         0.999985          116.46         0.999947         116.459       0.00019704         11.1536
50.266               0.000155685         15.0535         0.999986         116.376         0.999947         116.375      0.000196367         11.1505
50.273               0.000155541         15.0864         0.999986         116.292         0.999948         116.291      0.000195699         11.1472
50.28                0.000155397         15.1191         0.999987         116.208         0.999949         116.207      0.000195037         11.1436
50.287               0.000155252         15.1515         0.999987         116.123         0.999949         116.123       0.00019438         11.1398
50.294               0.000155107         15.1837         0.999987         116.039          0.99995         116.039      0.000193728         11.1357
50.301               0.000154962         15.2157         0.999988         115.955          0.99995         115.955      0.000193081         11.1314
50.308               0.000154816         15.2474         0.999988         115.871         0.999951         115.871      0.000192439         11.1269
50.315                0.00015467         15.2789         0.999988         115.787         0.999951         115.787      0.000191802         11.1221
50.322               0.000154523         15.3101         0.999989         115.703         0.999952         115.703       0.00019117          11.117
50.329               0.000154376         15.3411         0.999989         115.619         0.999952         115.619      0.000190543         11.1118
50.336               0.000154229         15.3719         0.999989         115.535         0.999953         115.535      0.000189921         11.1062
50.343               0.000154081         15.4024          0.99999         115.451         0.999953         115.451      0.000189303         11.1005
50.35                0.000153933         15.4326          0.99999         115.367         0.999954         115.367       0.00018869         11.0945
50.357               0.000153784         15.4627          0.99999         115.283         0.999954         115.283      0.000188082         11.0882
50.364               0.000153635         15.4925         0.999991         115.199         0.999955         115.199      0.000187478         11.0817
50.371               0.000153486          15.522         0.999991         115.115         0.999955         115.115      0.000186879          11.075
50.378               0.000153336         15.5513         0.999991         115.031         0.999955         115.031      0.000186284          11.068
50.385               0.000153186         15.5804         0.999992         114.947         0.999956         114.947      0.000185694         11.0607
50.392               0.000153036         15.6092         0.999992         114.863         0.999956         114.863      0.000185108         11.0532
50.399               0.000152885         15.6378         0.999992         114.779         0.999957         114.779      0.000184527         11.0455
50.406               0.000152733         15.6661         0.999992         114.695         0.999957         114.695       0.00018395         11.0375
50.413               0.000152582         15.6942         0.999993         114.611         0.999958         114.611      0.000183377         11.0293
50.42                0.000152429          15.722         0.999993         114.527         0.999958         114.527      0.000182808         11.0208
50.427               0.000152277         15.7496         0.999993         114.443         0.999959         114.443      0.000182243         11.0121
50.434               0.000152124         15.7769         0.999994         114.359         0.999959         114.359      0.000181683         11.0031
50.441               0.000151971         15.8041         0.999994         114.275          0.99996         114.275      0.000181127         10.9939
50.448               0.000151817         15.8309         0.999994          114.19          0.99996          114.19      0.000180574         10.9845
50.455               0.000151663         15.8575         0.999994         114.106          0.99996         114.106      0.000180026         10.9748
50.462               0.000151509         15.8839         0.999995         114.022         0.999961         114.022      0.000179481         10.9648
50.469               0.000151354           15.91         0.999995         113.938         0.999961         113.938      0.000178941         10.9546
50.476               0.000151199         15.9359         0.999995         113.854         0.999962         113.854      0.000178404         10.9441
50.483               0.000151044         15.9615         0.999995          113.77         0.999962          113.77      0.000177871         10.9334
50.49                0.000150888         15.9869         0.999996         113.686         0.999963         113.686      0.000177342         10.9225
50.497               0.000150732          16.012         0.999996         113.602         0.999963         113.602      0.000176816         10.9113
50.504               0.000150575         16.0369         0.999996         113.518         0.999963         113.518      0.000176295         10.8998
50.511               0.000150418         16.0616         0.999996         113.434         0.999964         113.434      0.000175777         10.8881
50.518               0.000150261         16.0859         0.999996          113.35         0.999964          113.35      0.000175262         10.8762
50.525               0.000150103         16.1101         0.999997         113.266         0.999965         113.266      0.000174751          10.864
50.532               0.000149945          16.134         0.999997         113.182         0.999965         113.182      0.000174244         10.8516
50.539               0.000149787         16.1576         0.999997         113.098         0.999965         113.098       0.00017374         10.8389
50.546               0.000149629          16.181         0.999997         113.014         0.999966         113.014       0.00017324         10.8259
50.553               0.000149469         16.2042         0.999998          112.93         0.999966          112.93      0.000172743         10.8127
50.56                 0.00014931         16.2271         0.999998         112.846         0.999966         112.846      0.000172249         10.7993
50.567                0.00014915         16.2497         0.999998         112.762         0.999967         112.762      0.000171759         10.7856
50.574                0.00014899         16.2721         0.999998         112.678         0.999967         112.678      0.000171272         10.7717
50.581                0.00014883         16.2943         0.999998         112.593         0.999968         112.594      0.000170788         10.7575
50.588               0.000148669         16.3162         0.999998         112.509         0.999968          112.51      0.000170308          10.743
50.595               0.000148508         16.3378         0.999999         112.425         0.999968         112.426      0.000169831         10.7283
50.602               0.000148347         16.3592         0.999999         112.341         0.999969         112.341      0.000169357         10.7134
50.609               0.000148185         16.3803         0.999999         112.257         0.999969         112.257      0.000168886         10.6982
50.616               0.000148023         16.4012         0.999999         112.173         0.999969         112.173      0.000168419         10.6828
50.623               0.000147861         16.4219         0.999999         112.089          0.99997         112.089      0.000167954         10.6671
50.63                0.000147698         16.4423                1         112.005          0.99997         112.005      0.000167492         10.6511
50.637               0.000147535         16.4624                1         111.921          0.99997         111.921      0.000167034         10.6349
50.644               0.000147372         16.4823                1         111.837         0.999971         111.837      0.000166579         10.6185
50.651               0.000147208         16.5019                1         111.753         0.999971         111.753      0.000166126         10.6018
50.658               0.000147044         16.5213                1         111.669         0.999971         111.669      0.000165677         10.5849
50.665                0.00014688         16.5404                1         111.585         0.999972         111.585       0.00016523         10.5677
50.672               0.000146715         16.5593                1         111.501         0.999972         111.501      0.000164786         10.5502
50.679                0.00014655         16.5779                1         111.417         0.999972         111.417      0.000164345         10.5325
50.686               0.000146385         16.5963                1         111.333         0.999973         111.333      0.000163907         10.5146
50.693                0.00014622         16.6144                1         111.249         0.999973         111.249      0.000163472         10.4964
50.7                 0.000146054         16.6322                1         111.164         0.999973         111.165       0.00016304          10.478
50.707               0.000145888         16.6498                1          111.08         0.999974         111.081       0.00016261         10.4593
50.714               0.000145721         16.6672                1         110.996         0.999974         110.997      0.000162183         10.4403
50.721               0.000145555         16.6842                1         110.912         0.999974         110.913      0.000161759         10.4212
50.728               0.000145388         16.7011                1         110.828         0.999975         110.829      0.000161337         10.4017
50.735                0.00014522         16.7177                1         110.744         0.999975         110.744      0.000160918          10.382
50.742               0.000145053          16.734                1          110.66         0.999975          110.66      0.000160502         10.3621
50.749               0.000144885           16.75                1         110.576         0.999975         110.576      0.000160088         10.3419
50.756               0.000144717         16.7659                1         110.492         0.999976         110.492      0.000159677         10.3215
50.763               0.000144548         16.7814                1         110.408         0.999976         110.408      0.000159268         10.3008
50.77                 0.00014438         16.7967                1         110.324         0.999976         110.324      0.000158862         10.2799
50.777               0.000144211         16.8117                1          110.24         0.999977          110.24      0.000158458         10.2587
50.784               0.000144041         16.8265                1         110.156         0.999977         110.156      0.000158057         10.2372
50.791               0.000143872          16.841                1         110.072         0.999977         110.072      0.000157658         10.2156
50.798               0.000143702         16.8553                1         109.988         0.999977         109.988      0.000157262         10.1936
50.805               0.000143532         16.8693                1         109.904         0.999978         109.904      0.000156868         10.1714
50.812               0.000143361         16.8831                1         109.819         0.999978          109.82      0.000156476          10.149
50.819               0.000143191         16.8965                1         109.735         0.999978         109.736      0.000156087         10.1263
50.826                0.00014302         16.9098                1         109.651         0.999978         109.652        0.0001557         10.1034
50.833               0.000142849         16.9227                1         109.567         0.999979         109.568      0.000155316         10.0802
50.84                0.000142677         16.9355                1         109.483         0.999979         109.484      0.000154933         10.0568
50.847               0.000142506         16.9479                1         109.399         0.999979           109.4      0.000154553         10.0332
50.854               0.000142334         16.9601                1         109.315         0.999979         109.315      0.000154176         10.0092
50.861               0.000142162          16.972                1         109.231          0.99998         109.231        0.0001538         9.98508
50.868               0.000141989         16.9837                1         109.147          0.99998         109.147      0.000153427         9.96067
50.875               0.000141817         16.9951                1         109.063          0.99998         109.063      0.000153055         9.93601
50.882               0.000141644         17.0063                1         108.979          0.99998         108.979      0.000152687          9.9111
50.889                0.00014147         17.0172                1         108.895         0.999981         108.895       0.00015232         9.88595
50.896               0.000141297         17.0278                1         108.811         0.999981         108.811      0.000151955         9.86055
50.903               0.000141123         17.0382                1         108.727         0.999981         108.727      0.000151592          9.8349
50.91                 0.00014095         17.0483                1         108.643         0.999981         108.643      0.000151232         9.80901
50.917               0.000140775         17.0581                1         108.558         0.999982         108.559      0.000150873         9.78287
50.924               0.000140601         17.0677                1         108.474         0.999982         108.475      0.000150517         9.75648
50.931               0.000140427          17.077                1          108.39         0.999982         108.391      0.000150163         9.72985
50.938               0.000140252         17.0861                1         108.306         0.999982         108.307       0.00014981         9.70297
50.945               0.000140077         17.0949                1         108.222         0.999982         108.223       0.00014946         9.67585
50.952               0.000139902         17.1034                1         108.138         0.999983         108.139      0.000149111         9.64848
50.959               0.000139726         17.1117                1         108.054         0.999983         108.054      0.000148765         9.62086
50.966                0.00013955         17.1197                1          107.97         0.999983          107.97       0.00014842           9.593
50.973               0.000139375         17.1274                1         107.886         0.999983         107.886      0.000148078          9.5649
50.98                0.000139198         17.1349                1         107.802         0.999983         107.802      0.000147737         9.53655
50.987               0.000139022         17.1421                1         107.718         0.999984         107.718      0.000147398         9.50795
50.994               0.000138846          17.149                1         107.634         0.999984         107.634      0.000147061         9.47911
51.001               0.000138669         17.1557                1          107.55         0.999984          107.55      0.000146726         9.45003
51.008               0.000138492         17.1621                1         107.466         0.999984         107.466      0.000146393          9.4207
51.015               0.000138315         17.1683                1         107.382         0.999984         107.382      0.000146062         9.39113
51.022               0.000138138         17.1742                1         107.297         0.999985         107.298      0.000145732         9.36131
51.029                0.00013796         17.1798                1         107.213         0.999985         107.214      0.000145404         9.33126
51.036               0.000137782         17.1852                1         107.129         0.999985          107.13      0.000145078         9.30095
51.043               0.000137605         17.1903                1         107.045         0.999985         107.046      0.000144754         9.27041
51.05                0.000137426         17.1951                1         106.961         0.999985         106.962      0.000144432         9.23962
51.057               0.000137248         17.1996                1         106.877         0.999986         106.878      0.000144111         9.20859
51.064                0.00013707         17.2039                1         106.793         0.999986         106.793      0.000143792         9.17732
51.071               0.000136891          17.208                1         106.709         0.999986         106.709      0.000143474         9.14581
51.078               0.000136712         17.2117                1         106.625         0.999986         106.625      0.000143159         9.11405
51.085               0.000136533         17.2152                1         106.541         0.999986         106.541      0.000142844         9.08205
51.092               0.000136354         17.2184                1         106.457         0.999986         106.457      0.000142532         9.04981
51.099               0.000136175         17.2214                1         106.373         0.999987         106.373      0.000142221         9.01733
51.106               0.000135995         17.2241                1         106.289         0.999987         106.289      0.000141912         8.98461
51.113               0.000135816         17.2265                1         106.205         0.999987         106.205      0.000141605         8.95165
51.12                0.000135636         17.2286                1         106.121         0.999987         106.121      0.000141299         8.91845
51.127               0.000135456         17.2305                1         106.036         0.999987         106.037      0.000140994         8.88501
51.134               0.000135276         17.2321                1         105.952         0.999987         105.953      0.000140692         8.85133
51.141               0.000135096         17.2335                1         105.868         0.999987         105.869       0.00014039          8.8174
51.148               0.000134915         17.2345                1         105.784         0.999988         105.785      0.000140091         8.78324
51.155               0.000134734         17.2353                1           105.7         0.999988         105.701      0.000139793         8.74884
51.162               0.000134554         17.2359                1         105.616         0.999988         105.617      0.000139496         8.71421
51.169               0.000134373         17.2361                1         105.532         0.999988         105.532      0.000139201         8.67933
51.176               0.000134192         17.2361                1         105.448         0.999988         105.448      0.000138907         8.64421
51.183               0.000134011         17.2359                1         105.364         0.999988         105.364      0.000138615         8.60886
51.19                0.000133829         17.2353                1          105.28         0.999988          105.28      0.000138325         8.57327
51.197               0.000133648         17.2345                1         105.196         0.999989         105.196      0.000138035         8.53744
51.204               0.000133466         17.2334                1         105.112         0.999989         105.112      0.000137748         8.50138
51.211               0.000133285          17.232                1         105.028         0.999989         105.028      0.000137461         8.46508
51.218               0.000133103         17.2304                1         104.944         0.999989         104.944      0.000137176         8.42854
51.225               0.000132921         17.2285                1         104.859         0.999989          104.86      0.000136893         8.39176
51.232               0.000132739         17.2263                1         104.775         0.999989         104.776      0.000136611         8.35475
51.239               0.000132556         17.2239                1         104.691         0.999989         104.692       0.00013633         8.31751
51.246               0.000132374         17.2212                1         104.607         0.999989         104.608      0.000136051         8.28002
51.253               0.000132192         17.2182                1         104.523          0.99999         104.524      0.000135773         8.24231
51.26                0.000132009         17.2149                1         104.439          0.99999          104.44      0.000135496         8.20435
51.267               0.000131826         17.2114                1         104.355          0.99999         104.355      0.000135221         8.16617
51.274               0.000131644         17.2075                1         104.271          0.99999         104.271      0.000134947         8.12775
51.281               0.000131461         17.2035                1         104.187          0.99999         104.187      0.000134674         8.08909
51.288               0.000131278         17.1991                1         104.103          0.99999         104.103      0.000134403         8.05021
51.295               0.000131095         17.1945                1         104.019          0.99999         104.019      0.000134133         8.01108
51.302               0.000130911         17.1895                1         103.935          0.99999         103.935      0.000133864         7.97173
51.309               0.000130728         17.1844                1         103.851          0.99999         103.851      0.000133596         7.93214
51.316               0.000130545         17.1789                1         103.767          0.99999         103.767       0.00013333         7.89232
51.323               0.000130361         17.1732                1         103.682         0.999991         103.683      0.000133065         7.85227
51.33                0.000130178         17.1672                1         103.598         0.999991         103.599      0.000132802         7.81199
51.337               0.000129994         17.1609                1         103.514         0.999991         103.515      0.000132539         7.77148
51.344                0.00012981         17.1543                1          103.43         0.999991         103.431      0.000132278         7.73073
51.351               0.000129627         17.1475                1         103.346         0.999991         103.347      0.000132018         7.68975
51.358               0.000129443         17.1404                1         103.262         0.999991         103.263      0.000131759         7.64855
51.365               0.000129259          17.133                1         103.178         0.999991         103.178      0.000131501         7.60711
51.372               0.000129075         17.1253                1         103.094         0.999991         103.094      0.000131245         7.56544
51.379               0.000128891         17.1174                1          103.01         0.999991          103.01      0.000130989         7.52355