! TOUCHSTONE file generated by CST MICROWAVE STUDIO
! Date and time: Wed Feb  7 15:34:37 2024
! Project name: material_desal.cst
! Header version: 2018
! Port assignment regex: !\s*Touchstone port\s*([0-9]+)\s*=\s*(CST MWS port|CST DS port)\s*([0-9]+|Zmin|Zmax)\s*\(\"(.*)\"\)(\s*mode\s*([0-9]+))?.*
! Touchstone port assignment:
! Touchstone port 1 = CST MWS port 1 ("")
! Touchstone port 2 = CST MWS port 2 ("")
# GHz S MA R 376.7
75                      0.686054        -139.915         0.540012         111.789         0.540012         111.789         0.686086        -139.913
75.035                  0.686418        -140.632         0.539754         111.199         0.539754         111.199         0.686448         -140.63
75.07                   0.686772        -141.347         0.539486         110.611         0.539486         110.611           0.6868        -141.344
75.105                  0.687115         -142.06         0.539207         110.025         0.539207         110.025         0.687142        -142.057
75.14                   0.687448        -142.772         0.538918          109.44         0.538918          109.44         0.687473        -142.769
75.175                  0.687771        -143.482         0.538619         108.858         0.538619         108.858         0.687795        -143.478
75.21                   0.688084         -144.19          0.53831         108.277          0.53831         108.277         0.688108        -144.186
75.245                  0.688389        -144.897          0.53799         107.698          0.53799         107.698         0.688413        -144.893
75.28                   0.688685        -145.602         0.537661          107.12         0.537661          107.12         0.688709        -145.598
75.315                  0.688973        -146.305         0.537322         106.544         0.537322         106.544         0.688997        -146.301
75.35                   0.689254        -147.007         0.536974          105.97         0.536974          105.97         0.689278        -147.003
75.385                  0.689527        -147.708         0.536615         105.397         0.536615         105.397         0.689551        -147.703
75.42                   0.689793        -148.407         0.536247         104.826         0.536247         104.826         0.689818        -148.402
75.455                  0.690052        -149.105         0.535868         104.256         0.535868         104.256         0.690079          -149.1
75.49                   0.690306        -149.801          0.53548         103.688          0.53548         103.688         0.690334        -149.796
75.525                  0.690555        -150.496         0.535081         103.121         0.535081         103.121         0.690584        -150.491
75.56                   0.690799        -151.189         0.534673         102.556         0.534673         102.556          0.69083        -151.185
75.595                  0.691038        -151.881         0.534254         101.991         0.534254         101.991         0.691072        -151.877
75.63                   0.691274        -152.572         0.533826         101.429         0.533826         101.429         0.691311        -152.568
75.665                  0.691508        -153.262         0.533387         100.867         0.533387         100.867         0.691548        -153.258
75.7                     0.69174        -153.951         0.532937         100.306         0.532937         100.306         0.691784        -153.947
75.735                  0.691971        -154.639         0.532478         99.7461         0.532478         99.7461         0.692019        -154.635
75.77                   0.692202        -155.326         0.532008         99.1871         0.532008         99.1871         0.692255        -155.322
75.805                  0.692435        -156.011         0.531528         98.6286         0.531528         98.6286         0.692494        -156.008
75.84                    0.69267        -156.696         0.531038         98.0706         0.531038         98.0706         0.692736        -156.693
75.875                   0.69291        -157.381         0.530539         97.5128         0.530539         97.5128         0.692983        -157.377
75.91                   0.693157        -158.064         0.530032          96.955         0.530032          96.955         0.693238        -158.061
75.945                  0.693413        -158.747         0.529517          96.397         0.529517          96.397         0.693503        -158.744
75.98                    0.69368        -159.429         0.528995         95.8385         0.528995         95.8385          0.69378        -159.427
76.015                  0.693961        -160.111          0.52847         95.2791          0.52847         95.2791         0.694073        -160.109
76.05                   0.694261        -160.792         0.527944         94.7185         0.527944         94.7185         0.694387         -160.79
76.085                  0.694584        -161.473          0.52742         94.1564          0.52742         94.1564         0.694724        -161.471
76.12                   0.694934        -162.153         0.526905         93.5925         0.526905         93.5925         0.695091        -162.151
76.155                  0.695318        -162.833         0.526403         93.0265         0.526403         93.0265         0.695493         -162.83
76.19                   0.695742        -163.511         0.525924         92.4582         0.525924         92.4582         0.695936        -163.508
76.225                  0.696213        -164.188         0.525476         91.8877         0.525476         91.8877         0.696426        -164.184
76.26                   0.696737        -164.864          0.52507         91.3153          0.52507         91.3153         0.696971        -164.857
76.295                  0.697323        -165.536         0.524717         90.7415         0.524717         90.7415         0.697575        -165.528
76.33                   0.697974        -166.204         0.524429         90.1675         0.524429         90.1675          0.69824        -166.193
76.365                   0.69869        -166.867         0.524213         89.5947         0.524213         89.5947         0.698965        -166.853
76.4                    0.699469        -167.522         0.524076         89.0251         0.524076         89.0251         0.699743        -167.505
76.435                  0.700297        -168.168         0.524018         88.4608         0.524018         88.4608         0.700559        -168.148
76.47                   0.701152        -168.804         0.524031         87.9041         0.524031         87.9041         0.701391        -168.781
76.505                  0.702005        -169.429         0.524102          87.357         0.524102          87.357         0.702207        -169.403
76.54                    0.70282        -170.042         0.524213         86.8209         0.524213         86.8209         0.702975        -170.014
76.575                  0.703559        -170.644         0.524343         86.2965         0.524343         86.2965         0.703664        -170.616
76.61                   0.704194        -171.239         0.524468         85.7836         0.524468         85.7836         0.704249        -171.211
76.645                  0.704705        -171.828          0.52457         85.2816          0.52457         85.2816         0.704718        -171.802
76.68                   0.705091        -172.414         0.524634          84.789         0.524634          84.789         0.705073        -172.392
76.715                  0.705361        -173.002         0.524651         84.3044         0.524651         84.3044         0.705323        -172.982
76.75                   0.705535        -173.592         0.524616         83.8261         0.524616         83.8261         0.705489        -173.576
76.785                  0.705636        -174.187         0.524528         83.3527         0.524528         83.3527          0.70559        -174.173
76.82                   0.705688        -174.786          0.52439         82.8831          0.52439         82.8831          0.70565        -174.774
76.855                  0.705712         -175.39         0.524206         82.4161         0.524206         82.4161         0.705685         -175.38
76.89                   0.705726        -175.998          0.52398         81.9512          0.52398         81.9512         0.705711         -175.99
76.925                  0.705741        -176.611          0.52372         81.4877          0.52372         81.4877          0.70574        -176.604
76.96                   0.705767        -177.226         0.523429         81.0253         0.523429         81.0253          0.70578         -177.22
76.995                  0.705812        -177.845         0.523114         80.5639         0.523114         80.5639         0.705837         -177.84
77.03                   0.705879        -178.466         0.522779         80.1032         0.522779         80.1032         0.705915        -178.461
77.065                   0.70597        -179.089         0.522428         79.6434         0.522428         79.6434         0.706017        -179.084
77.1                    0.706088        -179.713         0.522065         79.1845         0.522065         79.1845         0.706143        -179.708
77.135                  0.706233         179.662         0.521692         78.7264         0.521692         78.7264         0.706296         179.667
77.17                   0.706405         179.036         0.521313         78.2694         0.521313         78.2694         0.706474         179.041
77.205                  0.706604         178.409          0.52093         77.8134          0.52093         77.8134         0.706679         178.414
77.24                    0.70683         177.782         0.520544         77.3588         0.520544         77.3588          0.70691         177.787
77.275                  0.707083         177.155         0.520159         76.9054         0.520159         76.9054         0.707167          177.16
77.31                   0.707362         176.527         0.519774         76.4536         0.519774         76.4536         0.707449         176.532
77.345                  0.707667         175.899         0.519393         76.0034         0.519393         76.0034         0.707757         175.904
77.38                   0.707997         175.271         0.519015         75.5549         0.519015         75.5549         0.708089         175.276
77.415                  0.708353         174.642         0.518644         75.1083         0.518644         75.1083         0.708447         174.647
77.45                   0.708735         174.014         0.518278         74.6636         0.518278         74.6636         0.708831         174.019
77.485                  0.709142         173.385         0.517921          74.221         0.517921          74.221         0.709239          173.39
77.52                   0.709574         172.756         0.517573         73.7806         0.517573         73.7806         0.709672         172.761
77.555                  0.710032         172.127         0.517235         73.3425         0.517235         73.3425         0.710131         172.132
77.59                   0.710516         171.497         0.516908         72.9067         0.516908         72.9067         0.710615         171.502
77.625                  0.711025         170.867         0.516594         72.4734         0.516594         72.4734         0.711124         170.872
77.66                    0.71156         170.236         0.516294         72.0427         0.516294         72.0427          0.71166         170.241
77.695                  0.712122         169.605         0.516009         71.6147         0.516009         71.6147         0.712221          169.61
77.73                    0.71271         168.973         0.515741         71.1894         0.515741         71.1894          0.71281         168.978
77.765                  0.713325          168.34         0.515491         70.7668         0.515491         70.7668         0.713424         168.345
77.8                    0.713967         167.706          0.51526         70.3472          0.51526         70.3472         0.714066         167.711
77.835                  0.714637         167.071         0.515051         69.9306         0.515051         69.9306         0.714736         167.076
77.87                   0.715335         166.435         0.514864          69.517         0.514864          69.517         0.715433          166.44
77.905                  0.716062         165.798         0.514703         69.1064         0.514703         69.1064         0.716159         165.803
77.94                   0.716817         165.158         0.514568          68.699         0.514568          68.699         0.716914         165.164
77.975                  0.717601         164.518         0.514462         68.2948         0.514462         68.2948         0.717697         164.523
78.01                   0.718414         163.875         0.514387         67.8938         0.514387         67.8938         0.718509         163.881
78.045                  0.719257         163.231         0.514346         67.4961         0.514346         67.4961         0.719351         163.236
78.08                   0.720129         162.584         0.514341         67.1016         0.514341         67.1016         0.720223         162.589
78.115                  0.721032         161.935         0.514376         66.7103         0.514376         66.7103         0.721125          161.94
78.15                   0.721964         161.283         0.514452         66.3223         0.514452         66.3223         0.722056         161.288
78.185                  0.722926         160.628         0.514573         65.9375         0.514573         65.9375         0.723018         160.633
78.22                   0.723918         159.969         0.514743         65.5559         0.514743         65.5559         0.724009         159.975
78.255                   0.72494         159.308         0.514965         65.1773         0.514965         65.1773         0.725029         159.313
78.29                    0.72599         158.643         0.515243         64.8017         0.515243         64.8017         0.726078         158.648
78.325                  0.727069         157.973         0.515582          64.429         0.515582          64.429         0.727156         157.979
78.36                   0.728175         157.299         0.515984         64.0589         0.515984         64.0589         0.728261         157.305
78.395                  0.729308         156.621         0.516455         63.6913         0.516455         63.6913         0.729392         156.627
78.43                   0.730465         155.938            0.517         63.3259            0.517         63.3259         0.730548         155.943
78.465                  0.731645         155.249         0.517624         62.9625         0.517624         62.9625         0.731727         155.254
78.5                    0.732847         154.554         0.518332         62.6006         0.518332         62.6006         0.732927          154.56
78.535                  0.734066         153.853          0.51913           62.24          0.51913           62.24         0.734146         153.859
78.57                   0.735302         153.145         0.520024           61.88         0.520024           61.88          0.73538         153.151
78.605                  0.736549          152.43         0.521019         61.5202         0.521019         61.5202         0.736625         152.436
78.64                   0.737803         151.708         0.522123         61.1599         0.522123         61.1599         0.737878         151.714
78.675                   0.73906         150.977         0.523341         60.7984         0.523341         60.7984         0.739134         150.983
78.71                   0.740314         150.238         0.524681         60.4349         0.524681         60.4349         0.740387         150.244
78.745                  0.741559         149.489         0.526149         60.0684         0.526149         60.0684         0.741629         149.495
78.78                   0.742785         148.731         0.527753         59.6979         0.527753         59.6979         0.742854         148.737
78.815                  0.743985         147.962         0.529498         59.3222         0.529498         59.3222         0.744053         147.969
78.85                   0.745149         147.183         0.531392           58.94         0.531392           58.94         0.745215         147.189
78.885                  0.746264         146.392         0.533442         58.5497         0.533442         58.5497         0.746328         146.399
78.92                   0.747318         145.589         0.535653         58.1497         0.535653         58.1497          0.74738         145.596
78.955                  0.748294         144.774         0.538031         57.7381         0.538031         57.7381         0.748354         144.781
78.99                   0.749176         143.945         0.540582         57.3128         0.540582         57.3128         0.749234         143.952
79.025                  0.749943         143.103         0.543309         56.8716         0.543309         56.8716         0.749999          143.11
79.06                   0.750573         142.247         0.546214         56.4118         0.546214         56.4118         0.750627         142.254
79.095                  0.751039         141.376           0.5493         55.9306           0.5493         55.9306         0.751091         141.383
79.13                   0.751311          140.49         0.552564         55.4248         0.552564         55.4248         0.751361         140.498
79.165                  0.751355         139.589         0.556002         54.8909         0.556002         54.8909         0.751402         139.597
79.2                    0.751132         138.673         0.559605          54.325         0.559605          54.325         0.751176         138.681
79.235                  0.750595         137.743         0.563361         53.7226         0.563361         53.7226         0.750637          137.75
79.27                   0.749692         136.798          0.56725         53.0791          0.56725         53.0791         0.749731         136.806
79.305                  0.748362          135.84         0.571242         52.3888         0.571242         52.3888         0.748399         135.848
79.34                   0.746535         134.871         0.575296         51.6457         0.575296         51.6457         0.746569         134.879
79.375                   0.74413         133.894         0.579356         50.8433         0.579356         50.8433         0.744161         133.902
79.41                   0.741055         132.914         0.583341         49.9741         0.583341         49.9741         0.741083         132.922
79.445                  0.737207         131.937         0.587141         49.0303         0.587141         49.0303         0.737231         131.945
79.48                   0.732476         130.975         0.590604         48.0042         0.590604         48.0042         0.732496         130.983
79.515                  0.726753         130.041         0.593524         46.8887         0.593524         46.8887         0.726769          130.05
79.55                    0.71995          129.16         0.595622         45.6794         0.595622         45.6794         0.719962         129.168
79.585                  0.712035          128.36         0.596531         44.3772         0.596531         44.3772         0.712041         128.369
79.62                   0.703098         127.686         0.595797          42.994         0.595797          42.994         0.703096         127.694
79.655                  0.693448         127.188           0.5929         41.5602           0.5929         41.5602         0.693437         127.196
79.69                   0.683743         126.922         0.587345         40.1349         0.587345         40.1349          0.68372          126.93
79.725                  0.675078         126.928         0.578857         38.8143         0.578857         38.8143         0.675039         126.936
79.76                   0.668922         127.197         0.567654         37.7297         0.567654         37.7297         0.668865         127.206
79.795                  0.666737          127.64         0.554717         37.0215         0.554717         37.0215         0.666662          127.65
79.83                   0.669321          128.09         0.541776         36.7846         0.541776         36.7846          0.66923         128.102
79.865                  0.676286         128.358         0.530843         37.0091         0.530843         37.0091         0.676187         128.372
79.9                    0.686159         128.312         0.523467         37.5642         0.523467         37.5642          0.68606         128.329
79.935                  0.697063         127.923         0.520206         38.2501         0.520206         38.2501         0.696969         127.942
79.97                   0.707423         127.238         0.520662         38.8802         0.520662         38.8802         0.707339         127.258
80.005                  0.716293         126.339         0.523906         39.3339         0.523906         39.3339          0.71622         126.361
80.04                   0.723297         125.307          0.52892         39.5627          0.52892         39.5627         0.723235          125.33
80.075                  0.728437         124.205         0.534852         39.5681         0.534852         39.5681         0.728386         124.228
80.11                   0.731903         123.076          0.54109         39.3771          0.54109         39.3771         0.731861           123.1
80.145                  0.733949         121.948          0.54724         39.0245          0.54724         39.0245         0.733915         121.972
80.18                   0.734829         120.837         0.553065          38.544         0.553065          38.544         0.734803         120.862
80.215                  0.734771         119.753         0.558441         37.9649         0.558441         37.9649         0.734752         119.778
80.25                   0.733966         118.699          0.56331         37.3108          0.56331         37.3108         0.733953         118.725
80.285                  0.732571         117.678         0.567656         36.6005         0.567656         36.6005         0.732564         117.704
80.32                   0.730713          116.69         0.571489         35.8486         0.571489         35.8486         0.730712         116.716
80.355                  0.728496         115.733         0.574831         35.0663         0.574831         35.0663         0.728501          115.76
80.39                   0.726001         114.807          0.57771         34.2625          0.57771         34.2625         0.726012         114.834
80.425                  0.723296          113.91         0.580159         33.4439         0.580159         33.4439         0.723312         113.937
80.46                   0.720435          113.04         0.582209         32.6159         0.582209         32.6159         0.720456         113.067
80.495                   0.71746         112.195         0.583893         31.7826         0.583893         31.7826         0.717487         112.223
80.53                    0.71441         111.373          0.58524         30.9471          0.58524         30.9471         0.714441         111.401
80.565                  0.711312         110.573         0.586278         30.1121         0.586278         30.1121         0.711349         110.602
80.6                    0.708191         109.794         0.587035         29.2795         0.587035         29.2795         0.708233         109.823
80.635                  0.705066         109.034         0.587534         28.4509         0.587534         28.4509         0.705113         109.063
80.67                   0.701954         108.291         0.587799         27.6273         0.587799         27.6273         0.702006          108.32
80.705                  0.698868         107.564          0.58785         26.8098          0.58785         26.8098         0.698925         107.594
80.74                   0.695817         106.852         0.587705         25.9989         0.587705         25.9989         0.695879         106.882
80.775                  0.692811         106.154         0.587383         25.1953         0.587383         25.1953         0.692878         106.184
80.81                   0.689856         105.468           0.5869         24.3991           0.5869         24.3991         0.689927         105.499
80.845                  0.686956         104.794         0.586269         23.6108         0.586269         23.6108         0.687033         104.825
80.88                   0.684117         104.131         0.585505         22.8303         0.585505         22.8303         0.684198         104.162
80.915                   0.68134         103.477         0.584619         22.0578         0.584619         22.0578         0.681425         103.508
80.95                   0.678627         102.832         0.583622         21.2933         0.583622         21.2933         0.678717         102.863
80.985                   0.67598         102.196         0.582523         20.5365         0.582523         20.5365         0.676074         102.227
81.02                   0.673398         101.567         0.581333         19.7876         0.581333         19.7876         0.673497         101.598
81.055                  0.670883         100.944         0.580058         19.0463         0.580058         19.0463         0.670985         100.976
81.09                   0.668432         100.328         0.578706         18.3124         0.578706         18.3124         0.668538          100.36
81.125                  0.666045         99.7181         0.577283         17.5858         0.577283         17.5858         0.666156         99.7499
81.16                   0.663721          99.113         0.575795         16.8663         0.575795         16.8663         0.663836         99.1449
81.195                  0.661459         98.5126         0.574247         16.1537         0.574247         16.1537         0.661577         98.5446
81.23                   0.659256         97.9167         0.572644         15.4477         0.572644         15.4477         0.659378         97.9487
81.265                  0.657111         97.3247         0.570989         14.7482         0.570989         14.7482         0.657237         97.3568
81.3                    0.655022         96.7364         0.569285         14.0549         0.569285         14.0549         0.655151         96.7686
81.335                  0.652987         96.1516         0.567536         13.3676         0.567536         13.3676         0.653119         96.1838
81.37                   0.651003         95.5699         0.565744         12.6861         0.565744         12.6861         0.651139         95.6022
81.405                  0.649069         94.9912          0.56391         12.0101          0.56391         12.0101         0.649208         95.0235
81.44                   0.647182         94.4153         0.562035         11.3396         0.562035         11.3396         0.647324         94.4477
81.475                   0.64534         93.8421         0.560122         10.6742         0.560122         10.6742         0.645485         93.8745
81.51                   0.643541         93.2716         0.558171         10.0138         0.558171         10.0138         0.643689          93.304
81.545                  0.641783         92.7036          0.55618         9.35821          0.55618         9.35821         0.641934          92.736
81.58                   0.640063         92.1382         0.554151         8.70726         0.554151         8.70726         0.640218         92.1706
81.615                   0.63838         91.5754         0.552082         8.06078         0.552082         8.06078         0.638537         91.6078
81.65                   0.636731         91.0153         0.549972         7.41864         0.549972         7.41864         0.636892         91.0477
81.685                  0.635116         90.4581          0.54782         6.78069          0.54782         6.78069         0.635279         90.4905
81.72                   0.633531          89.904         0.545621         6.14682         0.545621         6.14682         0.633697         89.9363
81.755                  0.631975         89.3531         0.543374         5.51695         0.543374         5.51695         0.632144         89.3854
81.79                   0.630447          88.806         0.541074         4.89102         0.541074         4.89102          0.63062         88.8382
81.825                  0.628946          88.263         0.538717         4.26898         0.538717         4.26898         0.629121         88.2951
81.86                    0.62747         87.7246         0.536296         3.65087         0.536296         3.65087         0.627648         87.7567
81.895                  0.626019         87.1916         0.533805         3.03674         0.533805         3.03674           0.6262         87.2235