! TOUCHSTONE file generated by CST MICROWAVE STUDIO
! Date and time: Wed Feb 14 23:05:58 2024
! Project name: material_rotado.cst
! Parameters = {angY=0.5}
! Header version: 2018
! Port assignment regex: !\s*Touchstone port\s*([0-9]+)\s*=\s*(CST MWS port|CST DS port)\s*([0-9]+|Zmin|Zmax)\s*\(\"(.*)\"\)(\s*mode\s*([0-9]+))?.*
! Touchstone port assignment:
! Touchstone port 1 = CST MWS port 1 ("")
! Touchstone port 2 = CST MWS port 2 ("")
# GHz S MA R 376.7
75                      0.313303        -167.684         0.949653          110.08         0.949653          110.08         0.313303        -152.157
75.035                  0.313522        -168.122         0.949587          109.64         0.949587          109.64         0.313523        -152.589
75.07                   0.313741        -168.559          0.94952         109.201          0.94952         109.201         0.313742        -153.022
75.105                  0.313959        -168.997         0.949454         108.762         0.949454         108.762          0.31396        -153.456
75.14                   0.314176        -169.436         0.949388         108.322         0.949388         108.322         0.314178        -153.889
75.175                  0.314392        -169.875         0.949322         107.882         0.949322         107.882         0.314394        -154.323
75.21                   0.314607        -170.314         0.949255         107.442         0.949255         107.442          0.31461        -154.757
75.245                  0.314822        -170.753          0.94919         107.001          0.94919         107.001         0.314825        -155.192
75.28                   0.315035        -171.193         0.949124         106.561         0.949124         106.561         0.315039        -155.626
75.315                  0.315248        -171.633         0.949058          106.12         0.949058          106.12         0.315252        -156.061
75.35                    0.31546        -172.073         0.948992         105.679         0.948992         105.679         0.315464        -156.496
75.385                  0.315671        -172.513         0.948927         105.238         0.948927         105.238         0.315676        -156.931
75.42                   0.315881        -172.954         0.948861         104.797         0.948861         104.797         0.315886        -157.367
75.455                   0.31609        -173.395         0.948796         104.356         0.948796         104.356         0.316096        -157.803
75.49                   0.316299        -173.837         0.948731         103.915         0.948731         103.915         0.316304        -158.239
75.525                  0.316506        -174.278         0.948666         103.473         0.948666         103.473         0.316512        -158.675
75.56                   0.316713         -174.72         0.948601         103.031         0.948601         103.031         0.316719        -159.112
75.595                  0.316918        -175.163         0.948536         102.589         0.948536         102.589         0.316925        -159.548
75.63                   0.317123        -175.605         0.948472         102.147         0.948472         102.147         0.317129        -159.985
75.665                  0.317326        -176.048         0.948407         101.705         0.948407         101.705         0.317333        -160.422
75.7                    0.317529        -176.491         0.948343         101.262         0.948343         101.262         0.317536         -160.86
75.735                  0.317731        -176.934         0.948279          100.82         0.948279          100.82         0.317738        -161.297
75.77                   0.317932        -177.377         0.948215         100.377         0.948215         100.377         0.317939        -161.735
75.805                  0.318132        -177.821         0.948151         99.9345         0.948151         99.9345         0.318139        -162.173
75.84                    0.31833        -178.265         0.948087         99.4916         0.948087         99.4916         0.318338        -162.611
75.875                  0.318528        -178.709         0.948024         99.0485         0.948024         99.0485         0.318536         -163.05
75.91                   0.318725        -179.154          0.94796         98.6053          0.94796         98.6053         0.318733        -163.488
75.945                  0.318921        -179.599         0.947897          98.162         0.947897          98.162         0.318929        -163.927
75.98                   0.319116         179.956         0.947834         97.7185         0.947834         97.7185         0.319124        -164.366
76.015                   0.31931         179.511         0.947772         97.2749         0.947772         97.2749         0.319318        -164.805
76.05                   0.319502         179.066         0.947709         96.8312         0.947709         96.8312         0.319511        -165.244
76.085                  0.319694          178.62         0.947647         96.3874         0.947647         96.3874         0.319703        -165.684
76.12                   0.319885         178.175         0.947585         95.9434         0.947585         95.9434         0.319893        -166.123
76.155                  0.320075         177.729         0.947523         95.4994         0.947523         95.4994         0.320083        -166.563
76.19                   0.320263         177.282         0.947461         95.0552         0.947461         95.0552         0.320272        -167.003
76.225                  0.320451         176.836         0.947399         94.6109         0.947399         94.6109          0.32046        -167.443
76.26                   0.320637         176.389         0.947338         94.1665         0.947338         94.1665         0.320646        -167.883
76.295                  0.320823         175.942         0.947277          93.722         0.947277          93.722         0.320832        -168.324
76.33                   0.321007         175.495         0.947216         93.2774         0.947216         93.2774         0.321016        -168.764
76.365                  0.321191         175.048         0.947155         92.8327         0.947155         92.8327         0.321199        -169.205
76.4                    0.321373         174.601         0.947095         92.3878         0.947095         92.3878         0.321382        -169.646
76.435                  0.321554         174.153         0.947035         91.9429         0.947035         91.9429         0.321563        -170.087
76.47                   0.321734         173.705         0.946975         91.4979         0.946975         91.4979         0.321743        -170.528
76.505                  0.321913         173.257         0.946915         91.0528         0.946915         91.0528         0.321922        -170.969
76.54                   0.322091         172.809         0.946856         90.6076         0.946856         90.6076         0.322099        -171.411
76.575                  0.322267         172.361         0.946796         90.1623         0.946796         90.1623         0.322276        -171.852
76.61                   0.322443         171.912         0.946737         89.7169         0.946737         89.7169         0.322452        -172.294
76.645                  0.322618         171.464         0.946679         89.2714         0.946679         89.2714         0.322626        -172.736
76.68                   0.322791         171.015          0.94662         88.8259          0.94662         88.8259         0.322799        -173.178
76.715                  0.322963         170.566         0.946562         88.3802         0.946562         88.3802         0.322971         -173.62
76.75                   0.323134         170.117         0.946504         87.9345         0.946504         87.9345         0.323142        -174.062
76.785                  0.323304         169.667         0.946446         87.4887         0.946446         87.4887         0.323312        -174.504
76.82                   0.323473         169.218         0.946389         87.0428         0.946389         87.0428         0.323481        -174.947
76.855                   0.32364         168.768         0.946332         86.5969         0.946332         86.5969         0.323648        -175.389
76.89                   0.323807         168.319         0.946275         86.1509         0.946275         86.1509         0.323815        -175.832
76.925                  0.323972         167.869         0.946219         85.7048         0.946219         85.7048          0.32398        -176.275
76.96                   0.324136         167.419         0.946162         85.2586         0.946162         85.2586         0.324144        -176.718
76.995                  0.324299         166.969         0.946106         84.8123         0.946106         84.8123         0.324306        -177.161
77.03                   0.324461         166.518         0.946051          84.366         0.946051          84.366         0.324468        -177.604
77.065                  0.324621         166.068         0.945995         83.9197         0.945995         83.9197         0.324629        -178.047
77.1                    0.324781         165.617          0.94594         83.4732          0.94594         83.4732         0.324788         -178.49
77.135                  0.324939         165.167         0.945885         83.0267         0.945885         83.0267         0.324946        -178.933
77.17                   0.325096         164.716         0.945831         82.5802         0.945831         82.5802         0.325103        -179.377
77.205                  0.325252         164.265         0.945777         82.1336         0.945777         82.1336         0.325258         -179.82
77.24                   0.325406         163.814         0.945723         81.6869         0.945723         81.6869         0.325413         179.736
77.275                  0.325559         163.363         0.945669         81.2402         0.945669         81.2402         0.325566         179.293
77.31                   0.325712         162.912         0.945616         80.7934         0.945616         80.7934         0.325718         178.849
77.345                  0.325862          162.46         0.945563         80.3466         0.945563         80.3466         0.325869         178.405
77.38                   0.326012         162.009         0.945511         79.8997         0.945511         79.8997         0.326018         177.961
77.415                  0.326161         161.557         0.945459         79.4528         0.945459         79.4528         0.326166         177.517
77.45                   0.326308         161.106         0.945407         79.0058         0.945407         79.0058         0.326313         177.073
77.485                  0.326454         160.654         0.945355         78.5588         0.945355         78.5588         0.326459         176.629
77.52                   0.326598         160.202         0.945304         78.1117         0.945304         78.1117         0.326604         176.185
77.555                  0.326742          159.75         0.945253         77.6646         0.945253         77.6646         0.326747         175.741
77.59                   0.326884         159.298         0.945203         77.2175         0.945203         77.2175         0.326889         175.297
77.625                  0.327025         158.846         0.945152         76.7703         0.945152         76.7703          0.32703         174.853
77.66                   0.327165         158.394         0.945103         76.3231         0.945103         76.3231          0.32717         174.408
77.695                  0.327303         157.941         0.945053         75.8758         0.945053         75.8758         0.327308         173.964
77.73                   0.327441         157.489         0.945004         75.4286         0.945004         75.4286         0.327445         173.519
77.765                  0.327577         157.037         0.944955         74.9812         0.944955         74.9812         0.327581         173.075
77.8                    0.327711         156.584         0.944907         74.5339         0.944907         74.5339         0.327716         172.631
77.835                  0.327845         156.131         0.944859         74.0865         0.944859         74.0865         0.327849         172.186
77.87                   0.327977         155.679         0.944811         73.6391         0.944811         73.6391         0.327981         171.741
77.905                  0.328108         155.226         0.944764         73.1917         0.944764         73.1917         0.328112         171.297
77.94                   0.328238         154.773         0.944717         72.7442         0.944717         72.7442         0.328241         170.852
77.975                  0.328366         154.321          0.94467         72.2967          0.94467         72.2967         0.328369         170.407
78.01                   0.328493         153.868         0.944624         71.8492         0.944624         71.8492         0.328496         169.963
78.045                  0.328619         153.415         0.944578         71.4017         0.944578         71.4017         0.328622         169.518
78.08                   0.328743         152.962         0.944533         70.9542         0.944533         70.9542         0.328746         169.073
78.115                  0.328866         152.509         0.944488         70.5066         0.944488         70.5066         0.328869         168.628
78.15                   0.328988         152.056         0.944443          70.059         0.944443          70.059         0.328991         168.184
78.185                  0.329109         151.603         0.944399         69.6114         0.944399         69.6114         0.329112         167.739
78.22                   0.329228         151.149         0.944355         69.1638         0.944355         69.1638         0.329231         167.294
78.255                  0.329346         150.696         0.944312         68.7162         0.944312         68.7162         0.329349         166.849
78.29                   0.329463         150.243         0.944269         68.2685         0.944269         68.2685         0.329466         166.404
78.325                  0.329579          149.79         0.944226         67.8209         0.944226         67.8209         0.329581         165.959
78.36                   0.329693         149.336         0.944184         67.3732         0.944184         67.3732         0.329695         165.515
78.395                  0.329806         148.883         0.944142         66.9256         0.944142         66.9256         0.329808          165.07
78.43                   0.329917          148.43         0.944101         66.4779         0.944101         66.4779         0.329919         164.625
78.465                  0.330027         147.976          0.94406         66.0302          0.94406         66.0302         0.330029          164.18
78.5                    0.330136         147.523         0.944019         65.5825         0.944019         65.5825         0.330138         163.735
78.535                  0.330244         147.069         0.943979         65.1348         0.943979         65.1348         0.330245          163.29
78.57                    0.33035         146.616         0.943939         64.6871         0.943939         64.6871         0.330352         162.845
78.605                  0.330455         146.162           0.9439         64.2394           0.9439         64.2394         0.330457           162.4
78.64                   0.330559         145.709         0.943861         63.7917         0.943861         63.7917          0.33056         161.955
78.675                  0.330661         145.255         0.943822          63.344         0.943822          63.344         0.330662          161.51
78.71                   0.330762         144.802         0.943784         62.8963         0.943784         62.8963         0.330763         161.066
78.745                  0.330862         144.348         0.943747         62.4486         0.943747         62.4486         0.330863         160.621
78.78                    0.33096         143.894         0.943709         62.0009         0.943709         62.0009         0.330961         160.176
78.815                  0.331058         143.441         0.943673         61.5532         0.943673         61.5532         0.331058         159.731
78.85                   0.331153         142.987         0.943636         61.1055         0.943636         61.1055         0.331154         159.286
78.885                  0.331248         142.534           0.9436         60.6578           0.9436         60.6578         0.331248         158.841
78.92                   0.331341          142.08         0.943565         60.2101         0.943565         60.2101         0.331341         158.397
78.955                  0.331433         141.626          0.94353         59.7625          0.94353         59.7625         0.331433         157.952
78.99                   0.331523         141.173         0.943495         59.3148         0.943495         59.3148         0.331524         157.507
79.025                  0.331612         140.719         0.943461         58.8671         0.943461         58.8671         0.331613         157.062
79.06                     0.3317         140.266         0.943428         58.4195         0.943428         58.4195           0.3317         156.618
79.095                  0.331787         139.812         0.943394         57.9719         0.943394         57.9719         0.331787         156.173
79.13                   0.331872         139.358         0.943362         57.5242         0.943362         57.5242         0.331872         155.728
79.165                  0.331956         138.905         0.943329         57.0766         0.943329         57.0766         0.331956         155.284
79.2                    0.332038         138.451         0.943297          56.629         0.943297          56.629         0.332038         154.839
79.235                  0.332119         137.998         0.943266         56.1814         0.943266         56.1814         0.332119         154.394
79.27                   0.332199         137.544         0.943235         55.7339         0.943235         55.7339         0.332199          153.95
79.305                  0.332278          137.09         0.943204         55.2863         0.943204         55.2863         0.332278         153.505
79.34                   0.332355         136.637         0.943174         54.8388         0.943174         54.8388         0.332355         153.061
79.375                  0.332431         136.183         0.943145         54.3912         0.943145         54.3912         0.332431         152.616
79.41                   0.332505          135.73         0.943116         53.9437         0.943116         53.9437         0.332505         152.172
79.445                  0.332578         135.276         0.943087         53.4962         0.943087         53.4962         0.332578         151.727
79.48                    0.33265         134.823         0.943059         53.0488         0.943059         53.0488          0.33265         151.283
79.515                  0.332721         134.369         0.943031         52.6013         0.943031         52.6013         0.332721         150.839
79.55                    0.33279         133.916         0.943004         52.1539         0.943004         52.1539          0.33279         150.395
79.585                  0.332858         133.463         0.942977         51.7065         0.942977         51.7065         0.332858          149.95
79.62                   0.332924         133.009         0.942951         51.2591         0.942951         51.2591         0.332924         149.506
79.655                   0.33299         132.556         0.942925         50.8117         0.942925         50.8117          0.33299         149.062
79.69                   0.333054         132.103         0.942899         50.3644         0.942899         50.3644         0.333054         148.618
79.725                  0.333116         131.649         0.942875          49.917         0.942875          49.917         0.333116         148.174
79.76                   0.333177         131.196          0.94285         49.4697          0.94285         49.4697         0.333177          147.73
79.795                  0.333237         130.743         0.942826         49.0225         0.942826         49.0225         0.333237         147.286
79.83                   0.333296          130.29         0.942803         48.5752         0.942803         48.5752         0.333296         146.842
79.865                  0.333353         129.836          0.94278          48.128          0.94278          48.128         0.333353         146.398
79.9                    0.333409         129.383         0.942757         47.6808         0.942757         47.6808         0.333409         145.954
79.935                  0.333463          128.93         0.942735         47.2336         0.942735         47.2336         0.333464          145.51
79.97                   0.333517         128.477         0.942714         46.7864         0.942714         46.7864         0.333517         145.066
80.005                  0.333568         128.024         0.942693         46.3393         0.942693         46.3393         0.333569         144.623
80.04                   0.333619         127.571         0.942672         45.8922         0.942672         45.8922         0.333619         144.179
80.075                  0.333668         127.118         0.942652         45.4451         0.942652         45.4451         0.333669         143.735
80.11                   0.333716         126.665         0.942633         44.9981         0.942633         44.9981         0.333717         143.292
80.145                  0.333763         126.212         0.942614          44.551         0.942614          44.551         0.333763         142.848
80.18                   0.333808          125.76         0.942595         44.1041         0.942595         44.1041         0.333808         142.405
80.215                  0.333852         125.307         0.942577         43.6571         0.942577         43.6571         0.333852         141.961
80.25                   0.333894         124.854         0.942559         43.2102         0.942559         43.2102         0.333895         141.518
80.285                  0.333936         124.401         0.942542         42.7633         0.942542         42.7633         0.333936         141.075
80.32                   0.333976         123.949         0.942526         42.3164         0.942526         42.3164         0.333976         140.632
80.355                  0.334014         123.496          0.94251         41.8695          0.94251         41.8695         0.334015         140.188
80.39                   0.334052         123.043         0.942494         41.4227         0.942494         41.4227         0.334052         139.745
80.425                  0.334088         122.591         0.942479         40.9759         0.942479         40.9759         0.334088         139.302
80.46                   0.334122         122.138         0.942464         40.5292         0.942464         40.5292         0.334123         138.859
80.495                  0.334155         121.686          0.94245         40.0824          0.94245         40.0824         0.334156         138.416
80.53                   0.334187         121.234         0.942436         39.6358         0.942436         39.6358         0.334189         137.973
80.565                  0.334218         120.781         0.942423         39.1891         0.942423         39.1891         0.334219          137.53
80.6                    0.334247         120.329         0.942411         38.7425         0.942411         38.7425         0.334249         137.088
80.635                  0.334275         119.877         0.942399         38.2959         0.942399         38.2959         0.334277         136.645
80.67                   0.334302         119.424         0.942387         37.8493         0.942387         37.8493         0.334303         136.202
80.705                  0.334327         118.972         0.942376         37.4028         0.942376         37.4028         0.334329         135.759
80.74                   0.334351          118.52         0.942365         36.9563         0.942365         36.9563         0.334353         135.317
80.775                  0.334374         118.068         0.942355         36.5098         0.942355         36.5098         0.334376         134.874
80.81                   0.334396         117.616         0.942346         36.0633         0.942346         36.0633         0.334397         134.432
80.845                  0.334416         117.164         0.942337         35.6169         0.942337         35.6169         0.334417         133.989
80.88                   0.334434         116.712         0.942328         35.1706         0.942328         35.1706         0.334436         133.547
80.915                  0.334452          116.26          0.94232         34.7242          0.94232         34.7242         0.334454         133.105
80.95                   0.334468         115.809         0.942312         34.2779         0.942312         34.2779          0.33447         132.663
80.985                  0.334483         115.357         0.942305         33.8316         0.942305         33.8316         0.334485          132.22
81.02                   0.334496         114.905         0.942299         33.3854         0.942299         33.3854         0.334498         131.778
81.055                  0.334508         114.454         0.942293         32.9392         0.942293         32.9392         0.334511         131.336
81.09                   0.334519         114.002         0.942287          32.493         0.942287          32.493         0.334522         130.894
81.125                  0.334529          113.55         0.942282         32.0468         0.942282         32.0468         0.334531         130.452
81.16                   0.334537         113.099         0.942278         31.6007         0.942278         31.6007         0.334539          130.01
81.195                  0.334544         112.647         0.942274         31.1547         0.942274         31.1547         0.334546         129.569
81.23                   0.334549         112.196          0.94227         30.7086          0.94227         30.7086         0.334552         129.127
81.265                  0.334554         111.745         0.942267         30.2626         0.942267         30.2626         0.334556         128.685
81.3                    0.334556         111.293         0.942265         29.8166         0.942265         29.8166          0.33456         128.243
81.335                  0.334558         110.842         0.942263         29.3707         0.942263         29.3707         0.334561         127.802
81.37                   0.334558         110.391         0.942261         28.9247         0.942261         28.9247         0.334562          127.36
81.405                  0.334557          109.94          0.94226         28.4789          0.94226         28.4789         0.334561         126.919
81.44                   0.334555         109.489          0.94226          28.033          0.94226          28.033         0.334559         126.477
81.475                  0.334552         109.038          0.94226         27.5872          0.94226         27.5872         0.334555         126.036
81.51                   0.334547         108.587         0.942261         27.1414         0.942261         27.1414          0.33455         125.595
81.545                   0.33454         108.136         0.942262         26.6956         0.942262         26.6956         0.334544         125.153
81.58                   0.334533         107.685         0.942263         26.2499         0.942263         26.2499         0.334537         124.712
81.615                  0.334524         107.234         0.942266         25.8042         0.942266         25.8042         0.334528         124.271
81.65                   0.334514         106.784         0.942268         25.3586         0.942268         25.3586         0.334518          123.83
81.685                  0.334502         106.333         0.942271         24.9129         0.942271         24.9129         0.334506         123.389
81.72                    0.33449         105.882         0.942275         24.4673         0.942275         24.4673         0.334494         122.948
81.755                  0.334476         105.432         0.942279         24.0218         0.942279         24.0218          0.33448         122.507
81.79                    0.33446         104.981         0.942284         23.5762         0.942284         23.5762         0.334464         122.066
81.825                  0.334443         104.531         0.942289         23.1307         0.942289         23.1307         0.334448         121.625
81.86                   0.334425          104.08         0.942295         22.6853         0.942295         22.6853          0.33443         121.185
81.895                  0.334406          103.63         0.942301         22.2398         0.942301         22.2398         0.334411         120.744