! TOUCHSTONE file generated by CST MICROWAVE STUDIO
! Date and time: Fri Feb 16 12:03:39 2024
! Project name: material_rotado.cst
! Parameters = {angX=0.25; angY=0.75}
! Header version: 2018
! Port assignment regex: !\s*Touchstone port\s*([0-9]+)\s*=\s*(CST MWS port|CST DS port)\s*([0-9]+|Zmin|Zmax)\s*\(\"(.*)\"\)(\s*mode\s*([0-9]+))?.*
! Touchstone port assignment:
! Touchstone port 1 = CST MWS port 1 ("")
! Touchstone port 2 = CST MWS port 2 ("")
# GHz S MA R 376.7
75                       0.30841         -158.53         0.951321         111.497         0.951238         111.496         0.308399        -158.491
75.035                  0.308603        -158.623         0.951255         111.388         0.951173         111.386         0.308592        -158.584
75.07                   0.308795        -158.716         0.951189         111.278         0.951108         111.276         0.308785        -158.677
75.105                  0.308986        -158.809         0.951124         111.168         0.951043         111.167         0.308977        -158.771
75.14                   0.309177        -158.902         0.951058         111.058         0.950978         111.057         0.309169        -158.865
75.175                  0.309367        -158.996         0.950993         110.949         0.950914         110.947          0.30936        -158.959
75.21                   0.309557         -159.09         0.950929         110.839         0.950849         110.838         0.309551        -159.053
75.245                  0.309746        -159.184         0.950864         110.729         0.950785         110.728         0.309741        -159.147
75.28                   0.309934        -159.278           0.9508          110.62         0.950721         110.618          0.30993        -159.241
75.315                  0.310122        -159.372         0.950735          110.51         0.950658         110.509         0.310119        -159.336
75.35                    0.31031        -159.466         0.950671           110.4         0.950594         110.399         0.310308         -159.43
75.385                  0.310497         -159.56         0.950608         110.291         0.950531         110.289         0.310496        -159.525
75.42                   0.310683        -159.655         0.950544         110.181         0.950468          110.18         0.310683         -159.62
75.455                  0.310869        -159.749         0.950481         110.072         0.950405          110.07          0.31087        -159.715
75.49                   0.311054        -159.844         0.950418         109.962         0.950343         109.961         0.311056         -159.81
75.525                  0.311239        -159.939         0.950355         109.852         0.950281         109.851         0.311241        -159.905
75.56                   0.311423        -160.034         0.950293         109.743         0.950218         109.741         0.311426        -160.001
75.595                  0.311606         -160.13          0.95023         109.633         0.950157         109.632         0.311611        -160.096
75.63                   0.311789        -160.225         0.950168         109.524         0.950095         109.522         0.311794        -160.192
75.665                  0.311971        -160.321         0.950106         109.414         0.950034         109.413         0.311977        -160.288
75.7                    0.312153        -160.416         0.950045         109.305         0.949973         109.303          0.31216        -160.384
75.735                  0.312334        -160.512         0.949983         109.195         0.949912         109.194         0.312342         -160.48
75.77                   0.312514        -160.608         0.949922         109.086         0.949851         109.084         0.312523        -160.577
75.805                  0.312694        -160.704         0.949861         108.976         0.949791         108.975         0.312704        -160.673
75.84                   0.312873          -160.8         0.949801         108.867          0.94973         108.865         0.312884         -160.77
75.875                  0.313052        -160.897          0.94974         108.757          0.94967         108.756         0.313063        -160.866
75.91                    0.31323        -160.993          0.94968         108.648         0.949611         108.647         0.313242        -160.963
75.945                  0.313407         -161.09          0.94962         108.538         0.949551         108.537          0.31342         -161.06
75.98                   0.313584        -161.187          0.94956         108.429         0.949492         108.428         0.313598        -161.157
76.015                   0.31376        -161.283         0.949501         108.319         0.949433         108.318         0.313775        -161.255
76.05                   0.313935         -161.38         0.949442          108.21         0.949374         108.209         0.313951        -161.352
76.085                   0.31411        -161.478         0.949383         108.101         0.949316         108.099         0.314126         -161.45
76.12                   0.314284        -161.575         0.949324         107.991         0.949258          107.99         0.314301        -161.547
76.155                  0.314457        -161.672         0.949266         107.882           0.9492         107.881         0.314476        -161.645
76.19                    0.31463         -161.77         0.949207         107.772         0.949142         107.771         0.314649        -161.743
76.225                  0.314802        -161.868          0.94915         107.663         0.949085         107.662         0.314822        -161.841
76.26                   0.314973        -161.966         0.949092         107.554         0.949028         107.553         0.314994        -161.939
76.295                  0.315144        -162.064         0.949035         107.444         0.948971         107.443         0.315165        -162.038
76.33                   0.315314        -162.162         0.948977         107.335         0.948914         107.334         0.315336        -162.136
76.365                  0.315483         -162.26         0.948921         107.226         0.948858         107.225         0.315506        -162.235
76.4                    0.315651        -162.359         0.948864         107.116         0.948802         107.115         0.315676        -162.334
76.435                  0.315819        -162.457         0.948808         107.007         0.948746         107.006         0.315844        -162.433
76.47                   0.315986        -162.556         0.948752         106.898          0.94869         106.897         0.316012        -162.532
76.505                  0.316153        -162.655         0.948696         106.788         0.948635         106.787         0.316179        -162.631
76.54                   0.316318        -162.754          0.94864         106.679          0.94858         106.678         0.316346         -162.73
76.575                  0.316483        -162.853         0.948585          106.57         0.948525         106.569         0.316512         -162.83
76.61                   0.316648        -162.952          0.94853         106.461          0.94847          106.46         0.316677         -162.93
76.645                  0.316811        -163.051         0.948476         106.351         0.948416          106.35         0.316841        -163.029
76.68                   0.316974        -163.151         0.948421         106.242         0.948362         106.241         0.317005        -163.129
76.715                  0.317136        -163.251         0.948367         106.133         0.948309         106.132         0.317167        -163.229
76.75                   0.317297         -163.35         0.948313         106.024         0.948255         106.023         0.317329        -163.329
76.785                  0.317458         -163.45          0.94826         105.914         0.948202         105.914         0.317491         -163.43
76.82                   0.317617         -163.55         0.948206         105.805         0.948149         105.804         0.317651         -163.53
76.855                  0.317776        -163.651         0.948154         105.696         0.948097         105.695         0.317811        -163.631
76.89                   0.317935        -163.751         0.948101         105.587         0.948045         105.586          0.31797        -163.732
76.925                  0.318092        -163.851         0.948048         105.478         0.947993         105.477         0.318128        -163.832
76.96                   0.318249        -163.952         0.947996         105.369         0.947941         105.368         0.318286        -163.933
76.995                  0.318405        -164.053         0.947944         105.259          0.94789         105.258         0.318442        -164.034
77.03                    0.31856        -164.153         0.947893          105.15         0.947838         105.149         0.318598        -164.136
77.065                  0.318714        -164.254         0.947842         105.041         0.947788          105.04         0.318753        -164.237
77.1                    0.318868        -164.356         0.947791         104.932         0.947737         104.931         0.318907        -164.339
77.135                   0.31902        -164.457          0.94774         104.823         0.947687         104.822         0.319061         -164.44
77.17                   0.319172        -164.558          0.94769         104.714         0.947637         104.713         0.319213        -164.542
77.205                  0.319323         -164.66          0.94764         104.605         0.947587         104.604         0.319365        -164.644
77.24                   0.319474        -164.761          0.94759         104.495         0.947538         104.495         0.319516        -164.746
77.275                  0.319623        -164.863         0.947541         104.386         0.947489         104.386         0.319666        -164.848
77.31                   0.319772        -164.965         0.947491         104.277          0.94744         104.276         0.319816         -164.95
77.345                   0.31992        -165.067         0.947443         104.168         0.947392         104.167         0.319964        -165.053
77.38                   0.320067        -165.169         0.947394         104.059         0.947344         104.058         0.320112        -165.155
77.415                  0.320213        -165.271         0.947346          103.95         0.947296         103.949         0.320259        -165.258
77.45                   0.320358        -165.374         0.947298         103.841         0.947248          103.84         0.320405        -165.361
77.485                  0.320503        -165.476          0.94725         103.732         0.947201         103.731          0.32055        -165.464
77.52                   0.320646        -165.579         0.947203         103.623         0.947154         103.622         0.320694        -165.567
77.555                  0.320789        -165.682         0.947156         103.514         0.947108         103.513         0.320837         -165.67
77.59                   0.320931        -165.785         0.947109         103.405         0.947062         103.404          0.32098        -165.773
77.625                  0.321072        -165.888         0.947063         103.296         0.947016         103.295         0.321121        -165.877
77.66                   0.321212        -165.991         0.947017         103.187          0.94697         103.186         0.321262         -165.98
77.695                  0.321351        -166.094         0.946971         103.078         0.946925         103.077         0.321402        -166.084
77.73                    0.32149        -166.198         0.946926         102.969          0.94688         102.968         0.321541        -166.188
77.765                  0.321627        -166.301         0.946881          102.86         0.946835         102.859         0.321679        -166.292
77.8                    0.321764        -166.405         0.946836         102.751          0.94679          102.75         0.321816        -166.396
77.835                  0.321899        -166.509         0.946792         102.642         0.946746         102.641         0.321952          -166.5
77.87                   0.322034        -166.613         0.946747         102.533         0.946703         102.532         0.322088        -166.605
77.905                  0.322168        -166.717         0.946704         102.424         0.946659         102.423         0.322222        -166.709
77.94                   0.322301        -166.821          0.94666         102.315         0.946616         102.314         0.322356        -166.814
77.975                  0.322433        -166.925         0.946617         102.206         0.946573         102.205         0.322488        -166.918
78.01                   0.322564         -167.03         0.946574         102.097         0.946531         102.097          0.32262        -167.023
78.045                  0.322694        -167.134         0.946532         101.988         0.946489         101.988         0.322751        -167.128
78.08                   0.322824        -167.239          0.94649         101.879         0.946447         101.879         0.322881        -167.233
78.115                  0.322952        -167.344         0.946448          101.77         0.946406          101.77          0.32301        -167.338
78.15                    0.32308        -167.449         0.946406         101.661         0.946364         101.661         0.323137        -167.444
78.185                  0.323206        -167.554         0.946365         101.553         0.946324         101.552         0.323264        -167.549
78.22                   0.323332        -167.659         0.946324         101.444         0.946283         101.443          0.32339        -167.655
78.255                  0.323456        -167.764         0.946284         101.335         0.946243         101.334         0.323516        -167.761
78.29                    0.32358        -167.869         0.946243         101.226         0.946203         101.225          0.32364        -167.866
78.325                  0.323702        -167.975         0.946204         101.117         0.946164         101.116         0.323763        -167.972
78.36                   0.323824         -168.08         0.946164         101.008         0.946125         101.008         0.323885        -168.078
78.395                  0.323945        -168.186         0.946125         100.899         0.946086         100.899         0.324006        -168.184
78.43                   0.324064        -168.292         0.946086          100.79         0.946047          100.79         0.324126        -168.291
78.465                  0.324183        -168.398         0.946048         100.682         0.946009         100.681         0.324245        -168.397
78.5                    0.324301        -168.504          0.94601         100.573         0.945971         100.572         0.324364        -168.504
78.535                  0.324418         -168.61         0.945972         100.464         0.945934         100.463         0.324481         -168.61
78.57                   0.324534        -168.717         0.945934         100.355         0.945897         100.355         0.324597        -168.717
78.605                  0.324648        -168.823         0.945897         100.246          0.94586         100.246         0.324712        -168.824
78.64                   0.324762         -168.93          0.94586         100.137         0.945824         100.137         0.324826        -168.931
78.675                  0.324875        -169.036         0.945824         100.029         0.945788         100.028          0.32494        -169.038
78.71                   0.324987        -169.143         0.945788         99.9198         0.945752         99.9193         0.325052        -169.145
78.745                  0.325097         -169.25         0.945752          99.811         0.945717         99.8105         0.325163        -169.253
78.78                   0.325207        -169.357         0.945717         99.7022         0.945682         99.7017         0.325273         -169.36
78.815                  0.325316        -169.464         0.945682         99.5934         0.945647          99.593         0.325382        -169.468
78.85                   0.325423        -169.571         0.945647         99.4846         0.945613         99.4842          0.32549        -169.575
78.885                   0.32553        -169.679         0.945613         99.3759         0.945579         99.3754         0.325597        -169.683
78.92                   0.325636        -169.786         0.945579         99.2671         0.945545         99.2666         0.325703        -169.791
78.955                   0.32574        -169.894         0.945545         99.1583         0.945512         99.1579         0.325808        -169.899
78.99                   0.325844        -170.002         0.945512         99.0495         0.945479         99.0491         0.325912        -170.007
79.025                  0.325946        -170.109         0.945479         98.9408         0.945446         98.9403         0.326014        -170.115
79.06                   0.326047        -170.217         0.945447          98.832         0.945414         98.8316         0.326116        -170.224
79.095                  0.326148        -170.325         0.945415         98.7233         0.945382         98.7228         0.326217        -170.332
79.13                   0.326247        -170.433         0.945383         98.6145         0.945351         98.6141         0.326316        -170.441
79.165                  0.326345        -170.542         0.945351         98.5058          0.94532         98.5054         0.326415        -170.549
79.2                    0.326442         -170.65          0.94532          98.397         0.945289         98.3966         0.326512        -170.658
79.235                  0.326538        -170.758         0.945289         98.2883         0.945258         98.2879         0.326608        -170.767
79.27                   0.326633        -170.867         0.945259         98.1796         0.945228         98.1792         0.326703        -170.876
79.305                  0.326727        -170.976         0.945229         98.0709         0.945199         98.0705         0.326798        -170.985
79.34                    0.32682        -171.084         0.945199         97.9621         0.945169         97.9618         0.326891        -171.094
79.375                  0.326911        -171.193          0.94517         97.8534          0.94514          97.853         0.326982        -171.204
79.41                   0.327002        -171.302         0.945141         97.7447         0.945112         97.7443         0.327073        -171.313
79.445                  0.327091        -171.411         0.945113          97.636         0.945084         97.6356         0.327163        -171.423
79.48                    0.32718         -171.52         0.945085         97.5273         0.945056         97.5269         0.327251        -171.532
79.515                  0.327267         -171.63         0.945057         97.4186         0.945028         97.4182         0.327339        -171.642
79.55                   0.327353        -171.739         0.945029         97.3099         0.945001         97.3096         0.327425        -171.752
79.585                  0.327438        -171.849         0.945002         97.2012         0.944974         97.2009          0.32751        -171.862
79.62                   0.327522        -171.958         0.944976         97.0925         0.944948         97.0922         0.327594        -171.972
79.655                  0.327605        -172.068         0.944949         96.9838         0.944922         96.9835         0.327677        -172.082
79.69                   0.327686        -172.178         0.944923         96.8752         0.944896         96.8748         0.327759        -172.192
79.725                  0.327767        -172.288         0.944898         96.7665         0.944871         96.7662          0.32784        -172.303
79.76                   0.327846        -172.398         0.944873         96.6578         0.944846         96.6575         0.327919        -172.413
79.795                  0.327924        -172.508         0.944848         96.5492         0.944822         96.5488         0.327997        -172.524
79.83                   0.328001        -172.618         0.944823         96.4405         0.944797         96.4402         0.328075        -172.634
79.865                  0.328077        -172.728         0.944799         96.3318         0.944774         96.3315         0.328151        -172.745
79.9                    0.328152        -172.839         0.944776         96.2232          0.94475         96.2229         0.328225        -172.856
79.935                  0.328225        -172.949         0.944752         96.1145         0.944727         96.1142         0.328299        -172.967
79.97                   0.328298         -173.06         0.944729         96.0059         0.944705         96.0056         0.328371        -173.078
80.005                  0.328369         -173.17         0.944707         95.8972         0.944682         95.8969         0.328443        -173.189
80.04                   0.328439        -173.281         0.944685         95.7886          0.94466         95.7883         0.328513          -173.3
80.075                  0.328508        -173.392         0.944663         95.6799         0.944639         95.6796         0.328582        -173.411
80.11                   0.328576        -173.503         0.944641         95.5713         0.944618          95.571          0.32865        -173.523
80.145                  0.328642        -173.614          0.94462         95.4626         0.944597         95.4624         0.328716        -173.634
80.18                   0.328708        -173.725           0.9446          95.354         0.944577         95.3537         0.328781        -173.746
80.215                  0.328772        -173.836          0.94458         95.2454         0.944557         95.2451         0.328846        -173.858
80.25                   0.328835        -173.948          0.94456         95.1367         0.944537         95.1365         0.328909        -173.969
80.285                  0.328896        -174.059          0.94454         95.0281         0.944518         95.0279          0.32897        -174.081
80.32                   0.328957         -174.17         0.944521         94.9195         0.944499         94.9193         0.329031        -174.193
80.355                  0.329016        -174.282         0.944502         94.8109         0.944481         94.8106          0.32909        -174.305
80.39                   0.329074        -174.394         0.944484         94.7023         0.944463          94.702         0.329148        -174.417
80.425                  0.329131        -174.505         0.944466         94.5936         0.944445         94.5934         0.329205         -174.53
80.46                   0.329187        -174.617         0.944449          94.485         0.944428         94.4848         0.329261        -174.642
80.495                  0.329241        -174.729         0.944431         94.3764         0.944411         94.3762         0.329315        -174.754
80.53                   0.329295        -174.841         0.944415         94.2678         0.944394         94.2676         0.329368        -174.867
80.565                  0.329347        -174.953         0.944398         94.1592         0.944378          94.159          0.32942        -174.979
80.6                    0.329397        -175.066         0.944382         94.0506         0.944362         94.0504         0.329471        -175.092
80.635                  0.329447        -175.178         0.944367          93.942         0.944347         93.9418          0.32952        -175.205
80.67                   0.329495         -175.29         0.944352         93.8334         0.944332         93.8332         0.329568        -175.317
80.705                  0.329542        -175.403         0.944337         93.7248         0.944317         93.7246         0.329615         -175.43
80.74                   0.329588        -175.515         0.944322         93.6162         0.944303          93.616         0.329661        -175.543
80.775                  0.329633        -175.628         0.944308         93.5076          0.94429         93.5074         0.329706        -175.656
80.81                   0.329676         -175.74         0.944295          93.399         0.944276         93.3988         0.329749         -175.77
80.845                  0.329718        -175.853         0.944282         93.2904         0.944263         93.2902         0.329791        -175.883
80.88                   0.329759        -175.966         0.944269         93.1818         0.944251         93.1816         0.329831        -175.996
80.915                  0.329798        -176.079         0.944256         93.0732         0.944238          93.073         0.329871        -176.109
80.95                   0.329837        -176.192         0.944244         92.9646         0.944227         92.9644         0.329909        -176.223
80.985                  0.329874        -176.305         0.944233          92.856         0.944215         92.8558         0.329946        -176.336
81.02                   0.329909        -176.418         0.944221         92.7474         0.944204         92.7473         0.329981         -176.45
81.055                  0.329944        -176.531         0.944211         92.6388         0.944194         92.6387         0.330015        -176.564
81.09                   0.329977        -176.645           0.9442         92.5302         0.944183         92.5301         0.330048        -176.678
81.125                  0.330009        -176.758          0.94419         92.4217         0.944174         92.4215          0.33008        -176.791
81.16                    0.33004        -176.872          0.94418         92.3131         0.944164         92.3129         0.330111        -176.905
81.195                  0.330069        -176.985         0.944171         92.2045         0.944155         92.2043          0.33014        -177.019
81.23                   0.330097        -177.099         0.944162         92.0959         0.944147         92.0957         0.330168        -177.133
81.265                  0.330124        -177.212         0.944154         91.9873         0.944138         91.9872         0.330194        -177.248
81.3                    0.330149        -177.326         0.944146         91.8787         0.944131         91.8786         0.330219        -177.362
81.335                  0.330174         -177.44         0.944138         91.7701         0.944123           91.77         0.330243        -177.476
81.37                   0.330196        -177.554         0.944131         91.6616         0.944116         91.6614         0.330266         -177.59
81.405                  0.330218        -177.668         0.944124          91.553          0.94411         91.5528         0.330287        -177.705
81.44                   0.330238        -177.782         0.944118         91.4444         0.944103         91.4443         0.330307        -177.819
81.475                  0.330257        -177.896         0.944112         91.3358         0.944098         91.3357         0.330326        -177.934
81.51                   0.330275         -178.01         0.944106         91.2272         0.944092         91.2271         0.330343        -178.048
81.545                  0.330291        -178.124         0.944101         91.1186         0.944087         91.1185         0.330359        -178.163
81.58                   0.330306        -178.239         0.944096         91.0101         0.944083         91.0099         0.330374        -178.278
81.615                   0.33032        -178.353         0.944092         90.9015         0.944078         90.9014         0.330387        -178.393
81.65                   0.330333        -178.467         0.944088         90.7929         0.944075         90.7928         0.330399        -178.508
81.685                  0.330344        -178.582         0.944084         90.6843         0.944071         90.6842          0.33041        -178.623
81.72                   0.330353        -178.697         0.944081         90.5757         0.944068         90.5756         0.330419        -178.738
81.755                  0.330362        -178.811         0.944078         90.4671         0.944066          90.467         0.330427        -178.853
81.79                   0.330369        -178.926         0.944076         90.3585         0.944064         90.3584         0.330434        -178.968
81.825                  0.330375        -179.041         0.944074           90.25         0.944062         90.2499          0.33044        -179.083
81.86                   0.330379        -179.155         0.944072         90.1414         0.944061         90.1413         0.330444        -179.198
81.895                  0.330382         -179.27         0.944071         90.0328          0.94406         90.0327         0.330446        -179.314