! TOUCHSTONE file generated by CST MICROWAVE STUDIO
! Date and time: Mon Feb  5 15:19:28 2024
! Project name: material_rotado.cst
! Header version: 2018
! Port assignment regex: !\s*Touchstone port\s*([0-9]+)\s*=\s*(CST MWS port|CST DS port)\s*([0-9]+|Zmin|Zmax)\s*\(\"(.*)\"\)(\s*mode\s*([0-9]+))?.*
! Touchstone port assignment:
! Touchstone port 1 = CST MWS port 1 ("")
! Touchstone port 2 = CST MWS port 2 ("")
# GHz S MA R 376.7
75                      0.303875         169.306         0.952712         110.553         0.952712         110.553         0.303875          -128.2
75.035                  0.304191         168.859         0.952536         110.117         0.952536         110.117         0.304194        -128.623
75.07                   0.304504         168.411         0.952363          109.68         0.952363          109.68         0.304509        -129.046
75.105                  0.304815         167.963         0.952193         109.243         0.952193         109.243         0.304822         -129.47
75.14                   0.305123         167.515         0.952026         108.806         0.952026         108.806         0.305133        -129.894
75.175                  0.305429         167.066         0.951861         108.369         0.951861         108.369          0.30544        -130.318
75.21                   0.305731         166.616           0.9517         107.931           0.9517         107.931         0.305745        -130.743
75.245                  0.306031         166.167         0.951542         107.493         0.951542         107.493         0.306048        -131.168
75.28                   0.306329         165.717         0.951386         107.054         0.951386         107.054         0.306347        -131.593
75.315                  0.306624         165.266         0.951233         106.616         0.951233         106.616         0.306644        -132.018
75.35                   0.306916         164.816         0.951083         106.177         0.951083         106.177         0.306938        -132.444
75.385                  0.307205         164.365         0.950936         105.738         0.950936         105.738          0.30723        -132.869
75.42                   0.307492         163.913         0.950791         105.298         0.950791         105.298         0.307518        -133.295
75.455                  0.307777         163.462         0.950649         104.859         0.950649         104.859         0.307804        -133.722
75.49                   0.308058          163.01          0.95051         104.419          0.95051         104.419         0.308087        -134.148
75.525                  0.308337         162.557         0.950373         103.979         0.950373         103.979         0.308368        -134.575
75.56                   0.308613         162.104          0.95024         103.538          0.95024         103.538         0.308646        -135.002
75.595                  0.308887         161.651         0.950108         103.098         0.950108         103.098         0.308921        -135.429
75.63                   0.309157         161.198          0.94998         102.657          0.94998         102.657         0.309193        -135.856
75.665                  0.309426         160.744         0.949854         102.216         0.949854         102.216         0.309463        -136.284
75.7                    0.309691          160.29          0.94973         101.775          0.94973         101.775         0.309729        -136.712
75.735                  0.309954         159.836         0.949609         101.333         0.949609         101.333         0.309994         -137.14
75.77                   0.310214         159.382          0.94949         100.891          0.94949         100.891         0.310255        -137.568
75.805                  0.310471         158.927         0.949374         100.449         0.949374         100.449         0.310513        -137.996
75.84                   0.310726         158.472          0.94926         100.007          0.94926         100.007         0.310769        -138.425
75.875                  0.310978         158.016         0.949149         99.5649         0.949149         99.5649         0.311023        -138.853
75.91                   0.311227         157.561          0.94904         99.1224          0.94904         99.1224         0.311273        -139.282
75.945                  0.311474         157.105         0.948934         98.6796         0.948934         98.6796         0.311521        -139.711
75.98                   0.311718         156.648          0.94883         98.2367          0.94883         98.2367         0.311766        -140.141
76.015                  0.311959         156.192         0.948728         97.7935         0.948728         97.7935         0.312008         -140.57
76.05                   0.312198         155.735         0.948628         97.3502         0.948628         97.3502         0.312247        -140.999
76.085                  0.312434         155.278         0.948531         96.9067         0.948531         96.9067         0.312484        -141.429
76.12                   0.312667          154.82         0.948435          96.463         0.948435          96.463         0.312718        -141.859
76.155                  0.312898         154.363         0.948343         96.0191         0.948343         96.0191         0.312949        -142.289
76.19                   0.313126         153.905         0.948252          95.575         0.948252          95.575         0.313178        -142.719
76.225                  0.313351         153.447         0.948163         95.1308         0.948163         95.1308         0.313404        -143.149
76.26                   0.313574         152.989         0.948077         94.6864         0.948077         94.6864         0.313627         -143.58
76.295                  0.313794          152.53         0.947992         94.2419         0.947992         94.2419         0.313848         -144.01
76.33                   0.314011         152.071          0.94791         93.7971          0.94791         93.7971         0.314066        -144.441
76.365                  0.314226         151.612         0.947829         93.3523         0.947829         93.3523         0.314281        -144.872
76.4                    0.314438         151.153         0.947751         92.9072         0.947751         92.9072         0.314493        -145.303
76.435                  0.314647         150.693         0.947675          92.462         0.947675          92.462         0.314703        -145.734
76.47                   0.314854         150.234           0.9476         92.0167           0.9476         92.0167          0.31491        -146.165
76.505                  0.315058         149.774         0.947528         91.5712         0.947528         91.5712         0.315115        -146.596
76.54                    0.31526         149.314         0.947457         91.1256         0.947457         91.1256         0.315316        -147.027
76.575                  0.315459         148.853         0.947389         90.6798         0.947389         90.6798         0.315515        -147.459
76.61                   0.315655         148.393         0.947322         90.2339         0.947322         90.2339         0.315712         -147.89
76.645                  0.315849         147.932         0.947257         89.7878         0.947257         89.7878         0.315906        -148.322
76.68                    0.31604         147.471         0.947194         89.3417         0.947194         89.3417         0.316097        -148.753
76.715                  0.316229          147.01         0.947132         88.8954         0.947132         88.8954         0.316286        -149.185
76.75                   0.316415         146.548         0.947073         88.4489         0.947073         88.4489         0.316472        -149.617
76.785                  0.316598         146.087         0.947015         88.0024         0.947015         88.0024         0.316655        -150.049
76.82                   0.316779         145.625         0.946959         87.5557         0.946959         87.5557         0.316836        -150.481
76.855                  0.316957         145.163         0.946904         87.1089         0.946904         87.1089         0.317014        -150.913
76.89                   0.317133         144.701         0.946851          86.662         0.946851          86.662          0.31719        -151.345
76.925                  0.317306         144.239           0.9468          86.215           0.9468          86.215         0.317363        -151.777
76.96                   0.317477         143.776          0.94675         85.7679          0.94675         85.7679         0.317533        -152.209
76.995                  0.317645         143.314         0.946702         85.3206         0.946702         85.3206         0.317701        -152.642
77.03                   0.317811         142.851         0.946655         84.8733         0.946655         84.8733         0.317867        -153.074
77.065                  0.317974         142.388          0.94661         84.4259          0.94661         84.4259          0.31803        -153.506
77.1                    0.318135         141.925         0.946566         83.9783         0.946566         83.9783          0.31819        -153.939
77.135                  0.318293         141.461         0.946524         83.5307         0.946524         83.5307         0.318348        -154.371
77.17                   0.318449         140.998         0.946483          83.083         0.946483          83.083         0.318504        -154.804
77.205                  0.318602         140.534         0.946444         82.6351         0.946444         82.6351         0.318657        -155.236
77.24                   0.318753          140.07         0.946406         82.1872         0.946406         82.1872         0.318807        -155.669
77.275                  0.318901         139.606         0.946369         81.7393         0.946369         81.7393         0.318955        -156.102
77.31                   0.319047         139.142         0.946334         81.2912         0.946334         81.2912         0.319101        -156.534
77.345                  0.319191         138.678           0.9463          80.843           0.9463          80.843         0.319244        -156.967
77.38                   0.319332         138.214         0.946267         80.3948         0.946267         80.3948         0.319384          -157.4
77.415                  0.319471         137.749         0.946236         79.9465         0.946236         79.9465         0.319523        -157.832
77.45                   0.319607         137.285         0.946206         79.4981         0.946206         79.4981         0.319659        -158.265
77.485                  0.319741          136.82         0.946176         79.0497         0.946176         79.0497         0.319792        -158.698
77.52                   0.319873         136.355         0.946149         78.6012         0.946149         78.6012         0.319923         -159.13
77.555                  0.320003          135.89         0.946122         78.1526         0.946122         78.1526         0.320052        -159.563
77.59                    0.32013         135.425         0.946096         77.7039         0.946096         77.7039         0.320179        -159.996
77.625                  0.320254          134.96         0.946072         77.2552         0.946072         77.2552         0.320303        -160.429
77.66                   0.320377         134.494         0.946049         76.8064         0.946049         76.8064         0.320424        -160.861
77.695                  0.320497         134.029         0.946027         76.3576         0.946027         76.3576         0.320544        -161.294
77.73                   0.320615         133.563         0.946005         75.9087         0.946005         75.9087         0.320661        -161.727
77.765                   0.32073         133.097         0.945985         75.4598         0.945985         75.4598         0.320776        -162.159
77.8                    0.320843         132.631         0.945966         75.0108         0.945966         75.0108         0.320889        -162.592
77.835                  0.320955         132.165         0.945948         74.5617         0.945948         74.5617         0.320999        -163.025
77.87                   0.321063         131.699         0.945931         74.1127         0.945931         74.1127         0.321107        -163.457
77.905                   0.32117         131.233         0.945914         73.6635         0.945914         73.6635         0.321213         -163.89
77.94                   0.321275         130.767         0.945899         73.2143         0.945899         73.2143         0.321317        -164.323
77.975                  0.321377           130.3         0.945884         72.7651         0.945884         72.7651         0.321418        -164.755
78.01                   0.321477         129.834         0.945871         72.3158         0.945871         72.3158         0.321518        -165.188
78.045                  0.321575         129.367         0.945858         71.8665         0.945858         71.8665         0.321615         -165.62
78.08                   0.321671         128.901         0.945846         71.4172         0.945846         71.4172          0.32171        -166.053
78.115                  0.321764         128.434         0.945835         70.9678         0.945835         70.9678         0.321803        -166.485
78.15                   0.321856         127.967         0.945824         70.5184         0.945824         70.5184         0.321894        -166.918
78.185                  0.321945           127.5         0.945815          70.069         0.945815          70.069         0.321983         -167.35
78.22                   0.322033         127.033         0.945806         69.6195         0.945806         69.6195         0.322069        -167.783
78.255                  0.322118         126.566         0.945798           69.17         0.945798           69.17         0.322154        -168.215
78.29                   0.322201         126.099         0.945791         68.7205         0.945791         68.7205         0.322236        -168.647
78.325                  0.322283         125.631         0.945784         68.2709         0.945784         68.2709         0.322317         -169.08
78.36                   0.322362         125.164         0.945778         67.8214         0.945778         67.8214         0.322395        -169.512
78.395                  0.322439         124.696         0.945772         67.3718         0.945772         67.3718         0.322471        -169.944
78.43                   0.322514         124.229         0.945768         66.9221         0.945768         66.9221         0.322546        -170.376
78.465                  0.322587         123.761         0.945764         66.4725         0.945764         66.4725         0.322618        -170.808
78.5                    0.322659         123.294          0.94576         66.0229          0.94576         66.0229         0.322689         -171.24
78.535                  0.322728         122.826         0.945757         65.5732         0.945757         65.5732         0.322757        -171.672
78.57                   0.322795         122.358         0.945755         65.1235         0.945755         65.1235         0.322824        -172.104
78.605                  0.322861          121.89         0.945753         64.6738         0.945753         64.6738         0.322889        -172.536
78.64                   0.322924         121.422         0.945752         64.2241         0.945752         64.2241         0.322952        -172.968
78.675                  0.322986         120.954         0.945751         63.7743         0.945751         63.7743         0.323012        -173.399
78.71                   0.323046         120.486         0.945751         63.3246         0.945751         63.3246         0.323071        -173.831
78.745                  0.323104         120.017         0.945751         62.8749         0.945751         62.8749         0.323129        -174.263
78.78                    0.32316         119.549         0.945752         62.4251         0.945752         62.4251         0.323184        -174.694
78.815                  0.323214         119.081         0.945753         61.9753         0.945753         61.9753         0.323238        -175.126
78.85                   0.323267         118.612         0.945755         61.5256         0.945755         61.5256         0.323289        -175.557
78.885                  0.323318         118.144         0.945757         61.0758         0.945757         61.0758         0.323339        -175.988
78.92                   0.323367         117.675         0.945759          60.626         0.945759          60.626         0.323388         -176.42
78.955                  0.323414         117.207         0.945762         60.1763         0.945762         60.1763         0.323434        -176.851
78.99                   0.323459         116.738         0.945765         59.7265         0.945765         59.7265         0.323479        -177.282
79.025                  0.323503         116.269         0.945769         59.2767         0.945769         59.2767         0.323522        -177.713
79.06                   0.323545           115.8         0.945773         58.8269         0.945773         58.8269         0.323563        -178.144
79.095                  0.323585         115.332         0.945777         58.3771         0.945777         58.3771         0.323603        -178.575
79.13                   0.323624         114.863         0.945782         57.9274         0.945782         57.9274         0.323641        -179.006
79.165                  0.323661         114.394         0.945787         57.4776         0.945787         57.4776         0.323677        -179.437
79.2                    0.323696         113.925         0.945792         57.0278         0.945792         57.0278         0.323712        -179.867
79.235                   0.32373         113.455         0.945798          56.578         0.945798          56.578         0.323745         179.702
79.27                   0.323762         112.986         0.945804         56.1283         0.945804         56.1283         0.323776         179.272
79.305                  0.323793         112.517          0.94581         55.6785          0.94581         55.6785         0.323806         178.841
79.34                   0.323821         112.048         0.945816         55.2288         0.945816         55.2288         0.323834         178.411
79.375                  0.323849         111.578         0.945823          54.779         0.945823          54.779         0.323861         177.981
79.41                   0.323875         111.109          0.94583         54.3293          0.94583         54.3293         0.323886          177.55
79.445                  0.323899         110.639         0.945837         53.8795         0.945837         53.8795          0.32391          177.12
79.48                   0.323922          110.17         0.945845         53.4298         0.945845         53.4298         0.323932          176.69
79.515                  0.323943           109.7         0.945852         52.9801         0.945852         52.9801         0.323952          176.26
79.55                   0.323963         109.231          0.94586         52.5304          0.94586         52.5304         0.323972          175.83
79.585                  0.323981         108.761         0.945868         52.0807         0.945868         52.0807         0.323989         175.401
79.62                   0.323998         108.291         0.945876          51.631         0.945876          51.631         0.324006         174.971
79.655                  0.324013         107.821         0.945885         51.1813         0.945885         51.1813         0.324021         174.541
79.69                   0.324027         107.352         0.945893         50.7317         0.945893         50.7317         0.324034         174.112
79.725                   0.32404         106.882         0.945902          50.282         0.945902          50.282         0.324046         173.682
79.76                   0.324051         106.412         0.945911         49.8324         0.945911         49.8324         0.324057         173.253
79.795                  0.324061         105.942          0.94592         49.3828          0.94592         49.3828         0.324066         172.824
79.83                    0.32407         105.472         0.945929         48.9331         0.945929         48.9331         0.324074         172.395
79.865                  0.324077         105.001         0.945939         48.4835         0.945939         48.4835         0.324081         171.966
79.9                    0.324083         104.531         0.945948         48.0339         0.945948         48.0339         0.324086         171.537
79.935                  0.324087         104.061         0.945958         47.5844         0.945958         47.5844          0.32409         171.108
79.97                    0.32409         103.591         0.945968         47.1348         0.945968         47.1348         0.324093         170.679
80.005                  0.324092          103.12         0.945977         46.6852         0.945977         46.6852         0.324095          170.25
80.04                   0.324093          102.65         0.945987         46.2357         0.945987         46.2357         0.324095         169.822
80.075                  0.324093         102.179         0.945998         45.7862         0.945998         45.7862         0.324094         169.393
80.11                   0.324091         101.709         0.946008         45.3366         0.946008         45.3366         0.324092         168.965
80.145                  0.324088         101.238         0.946018         44.8871         0.946018         44.8871         0.324088         168.536
80.18                   0.324084         100.767         0.946028         44.4376         0.946028         44.4376         0.324084         168.108
80.215                  0.324079         100.297         0.946039         43.9882         0.946039         43.9882         0.324078          167.68
80.25                   0.324072         99.8257         0.946049         43.5387         0.946049         43.5387         0.324071         167.252
80.285                  0.324065         99.3548          0.94606         43.0892          0.94606         43.0892         0.324063         166.824
80.32                   0.324056         98.8839         0.946071         42.6398         0.946071         42.6398         0.324054         166.396
80.355                  0.324046         98.4129         0.946081         42.1904         0.946081         42.1904         0.324044         165.968
80.39                   0.324035         97.9418         0.946092         41.7409         0.946092         41.7409         0.324033          165.54
80.425                  0.324023         97.4706         0.946103         41.2915         0.946103         41.2915         0.324021         165.113
80.46                    0.32401         96.9994         0.946114         40.8421         0.946114         40.8421         0.324007         164.685
80.495                  0.323996         96.5281         0.946125         40.3927         0.946125         40.3927         0.323993         164.258
80.53                   0.323981         96.0567         0.946136         39.9433         0.946136         39.9433         0.323978         163.831
80.565                  0.323965         95.5852         0.946147          39.494         0.946147          39.494         0.323961         163.403
80.6                    0.323948         95.1137         0.946158         39.0446         0.946158         39.0446         0.323944         162.976
80.635                  0.323929         94.6421          0.94617         38.5953          0.94617         38.5953         0.323925         162.549
80.67                    0.32391         94.1704         0.946181         38.1459         0.946181         38.1459         0.323906         162.122
80.705                   0.32389         93.6987         0.946192         37.6966         0.946192         37.6966         0.323886         161.695
80.74                   0.323869         93.2268         0.946203         37.2472         0.946203         37.2472         0.323865         161.269
80.775                  0.323848         92.7549         0.946215         36.7979         0.946215         36.7979         0.323843         160.842
80.81                   0.323825         92.2829         0.946226         36.3486         0.946226         36.3486          0.32382         160.415
80.845                  0.323801         91.8108         0.946238         35.8993         0.946238         35.8993         0.323796         159.989
80.88                   0.323777         91.3386         0.946249           35.45         0.946249           35.45         0.323771         159.563
80.915                  0.323751         90.8663         0.946261         35.0006         0.946261         35.0006         0.323746         159.136
80.95                   0.323725          90.394         0.946272         34.5513         0.946272         34.5513          0.32372          158.71
80.985                  0.323698         89.9215         0.946284          34.102         0.946284          34.102         0.323693         158.284
81.02                   0.323671          89.449         0.946295         33.6527         0.946295         33.6527         0.323665         157.858
81.055                  0.323642         88.9763         0.946307         33.2034         0.946307         33.2034         0.323636         157.432
81.09                   0.323613         88.5036         0.946319         32.7541         0.946319         32.7541         0.323607         157.006
81.125                  0.323583         88.0308          0.94633         32.3048          0.94633         32.3048         0.323577         156.581
81.16                   0.323552         87.5578         0.946342         31.8555         0.946342         31.8555         0.323546         156.155
81.195                  0.323521         87.0848         0.946354         31.4062         0.946354         31.4062         0.323514         155.729
81.23                   0.323489         86.6116         0.946366         30.9568         0.946366         30.9568         0.323482         155.304
81.265                  0.323456         86.1383         0.946377         30.5075         0.946377         30.5075         0.323449         154.879
81.3                    0.323422          85.665         0.946389         30.0582         0.946389         30.0582         0.323416         154.453
81.335                  0.323388         85.1915         0.946401         29.6088         0.946401         29.6088         0.323382         154.028
81.37                   0.323354         84.7178         0.946413         29.1595         0.946413         29.1595         0.323347         153.603
81.405                  0.323318         84.2441         0.946425         28.7101         0.946425         28.7101         0.323312         153.178
81.44                   0.323283         83.7702         0.946437         28.2607         0.946437         28.2607         0.323276         152.753
81.475                  0.323246         83.2963         0.946448         27.8113         0.946448         27.8113          0.32324         152.329
81.51                   0.323209         82.8221          0.94646         27.3619          0.94646         27.3619         0.323203         151.904
81.545                  0.323172         82.3479         0.946472         26.9125         0.946472         26.9125         0.323166         151.479
81.58                   0.323134         81.8735         0.946484         26.4631         0.946484         26.4631         0.323128         151.055
81.615                  0.323096          81.399         0.946496         26.0136         0.946496         26.0136         0.323089         150.631
81.65                   0.323057         80.9243         0.946508         25.5641         0.946508         25.5641         0.323051         150.206
81.685                  0.323018         80.4495          0.94652         25.1146          0.94652         25.1146         0.323011         149.782
81.72                   0.322978         79.9745         0.946532         24.6651         0.946532         24.6651         0.322972         149.358
81.755                  0.322938         79.4994         0.946544         24.2155         0.946544         24.2155         0.322932         148.934
81.79                   0.322898         79.0242         0.946556         23.7659         0.946556         23.7659         0.322892          148.51
81.825                  0.322857         78.5487         0.946568         23.3163         0.946568         23.3163         0.322851         148.086
81.86                   0.322816         78.0731          0.94658         22.8666          0.94658         22.8666          0.32281         147.663
81.895                  0.322775         77.5973         0.946592         22.4169         0.946592         22.4169         0.322769         147.239