! TOUCHSTONE file generated by CST MICROWAVE STUDIO
! Date and time: Mon Feb  5 17:59:26 2024
! Project name: material_pared.cst
! Header version: 2018
! Port assignment regex: !\s*Touchstone port\s*([0-9]+)\s*=\s*(CST MWS port|CST DS port)\s*([0-9]+|Zmin|Zmax)\s*\(\"(.*)\"\)(\s*mode\s*([0-9]+))?.*
! Touchstone port assignment:
! Touchstone port 1 = CST MWS port 1 ("")
! Touchstone port 2 = CST MWS port 2 ("")
# GHz S MA R 376.7
75                      0.312732         -159.48         0.949877         110.194         0.949928         110.193         0.312737         -160.14
75.035                   0.31296        -159.591         0.949803         109.915         0.949853         109.914         0.312963        -160.585
75.07                   0.313186        -159.702         0.949728         109.637         0.949778         109.636         0.313188        -161.031
75.105                  0.313411        -159.813         0.949654         109.358         0.949704         109.357         0.313411        -161.477
75.14                   0.313635        -159.924          0.94958          109.08          0.94963         109.078         0.313634        -161.922
75.175                  0.313858        -160.035         0.949506         108.802         0.949557           108.8         0.313855        -162.368
75.21                    0.31408        -160.147         0.949433         108.523         0.949483         108.521         0.314075        -162.814
75.245                    0.3143        -160.258          0.94936         108.245          0.94941         108.243         0.314294         -163.26
75.28                   0.314519        -160.369         0.949288         107.966         0.949338         107.964         0.314512        -163.705
75.315                  0.314737         -160.48         0.949215         107.688         0.949266         107.685         0.314728        -164.151
75.35                   0.314953        -160.591         0.949144         107.409         0.949194         107.407         0.314943        -164.597
75.385                  0.315169        -160.702         0.949072         107.131         0.949122         107.128         0.315158        -165.043
75.42                   0.315383        -160.813         0.949001         106.852         0.949051          106.85          0.31537        -165.489
75.455                  0.315596        -160.924          0.94893         106.574          0.94898         106.571         0.315582        -165.935
75.49                   0.315807        -161.035          0.94886         106.295         0.948909         106.293         0.315793         -166.38
75.525                  0.316018        -161.145         0.948789         106.017         0.948839         106.014         0.316002        -166.826
75.56                   0.316227        -161.256          0.94872         105.739         0.948769         105.736          0.31621        -167.272
75.595                  0.316435        -161.367          0.94865          105.46         0.948699         105.457         0.316417        -167.718
75.63                   0.316642        -161.478         0.948581         105.182          0.94863         105.179         0.316623        -168.164
75.665                  0.316847        -161.589         0.948513         104.903         0.948561           104.9         0.316827         -168.61
75.7                    0.317052          -161.7         0.948444         104.625         0.948493         104.622         0.317031        -169.056
75.735                  0.317255        -161.811         0.948376         104.346         0.948425         104.343         0.317233        -169.502
75.77                   0.317456        -161.921         0.948309         104.068         0.948357         104.065         0.317434        -169.948
75.805                  0.317657        -162.032         0.948241          103.79         0.948289         103.786         0.317634        -170.394
75.84                   0.317856        -162.143         0.948174         103.511         0.948222         103.508         0.317833         -170.84
75.875                  0.318055        -162.254         0.948108         103.233         0.948155         103.229          0.31803        -171.286
75.91                   0.318252        -162.364         0.948042         102.954         0.948089         102.951         0.318226        -171.732
75.945                  0.318447        -162.475         0.947976         102.676         0.948023         102.672         0.318421        -172.178
75.98                   0.318642        -162.586          0.94791         102.398         0.947957         102.394         0.318615        -172.624
76.015                  0.318835        -162.697         0.947845         102.119         0.947892         102.115         0.318808         -173.07
76.05                   0.319027        -162.807         0.947781         101.841         0.947827         101.837         0.318999        -173.516
76.085                  0.319218        -162.918         0.947716         101.563         0.947762         101.559          0.31919        -173.962
76.12                   0.319407        -163.029         0.947652         101.284         0.947698          101.28         0.319379        -174.408
76.155                  0.319596        -163.139         0.947589         101.006         0.947634         101.002         0.319567        -174.854
76.19                   0.319783         -163.25         0.947525         100.727          0.94757         100.723         0.319753          -175.3
76.225                  0.319969         -163.36         0.947462         100.449         0.947507         100.445         0.319939        -175.746
76.26                   0.320153        -163.471           0.9474         100.171         0.947444         100.167         0.320123        -176.193
76.295                  0.320337        -163.581         0.947338         99.8925         0.947381         99.8884         0.320306        -176.639
76.33                   0.320519        -163.692         0.947276         99.6141         0.947319           99.61         0.320488        -177.085
76.365                    0.3207        -163.803         0.947214         99.3358         0.947257         99.3317         0.320669        -177.531
76.4                     0.32088        -163.913         0.947153         99.0575         0.947196         99.0533         0.320848        -177.977
76.435                  0.321058        -164.024         0.947093         98.7792         0.947135          98.775         0.321027        -178.423
76.47                   0.321236        -164.134         0.947032         98.5009         0.947074         98.4967         0.321204        -178.869
76.505                  0.321412        -164.245         0.946972         98.2226         0.947014         98.2184          0.32138        -179.315
76.54                   0.321587        -164.355         0.946913         97.9443         0.946954         97.9401         0.321555        -179.762
76.575                   0.32176        -164.465         0.946854          97.666         0.946894         97.6618         0.321728         179.792
76.61                   0.321933        -164.576         0.946795         97.3878         0.946835         97.3835         0.321901         179.346
76.645                  0.322104        -164.686         0.946736         97.1095         0.946776         97.1052         0.322072           178.9
76.68                   0.322274        -164.797         0.946678         96.8312         0.946718          96.827         0.322242         178.454
76.715                  0.322443        -164.907         0.946621          96.553          0.94666         96.5487         0.322411         178.008
76.75                    0.32261        -165.017         0.946563         96.2747         0.946602         96.2705         0.322578         177.562
76.785                  0.322776        -165.128         0.946506         95.9965         0.946545         95.9922         0.322745         177.115
76.82                   0.322942        -165.238          0.94645         95.7182         0.946488          95.714          0.32291         176.669
76.855                  0.323105        -165.348         0.946394           95.44         0.946431         95.4358         0.323074         176.223
76.89                   0.323268        -165.459         0.946338         95.1618         0.946375         95.1576         0.323237         175.777
76.925                  0.323429        -165.569         0.946282         94.8836         0.946319         94.8794         0.323398         175.331
76.96                    0.32359        -165.679         0.946227         94.6054         0.946264         94.6012         0.323559         174.885
76.995                  0.323749        -165.789         0.946173         94.3272         0.946209          94.323         0.323718         174.439
77.03                   0.323906          -165.9         0.946119          94.049         0.946154         94.0449         0.323876         173.992
77.065                  0.324063         -166.01         0.946065         93.7708           0.9461         93.7667         0.324033         173.546
77.1                    0.324218         -166.12         0.946011         93.4926         0.946046         93.4886         0.324188           173.1
77.135                  0.324372         -166.23         0.945958         93.2145         0.945993         93.2104         0.324343         172.654
77.17                   0.324525        -166.341         0.945905         92.9363          0.94594         92.9323         0.324496         172.208
77.205                  0.324677        -166.451         0.945853         92.6582         0.945887         92.6542         0.324648         171.762
77.24                   0.324827        -166.561         0.945801           92.38         0.945834          92.376         0.324799         171.316
77.275                  0.324976        -166.671          0.94575         92.1019         0.945782         92.0979         0.324948         170.869
77.31                   0.325124        -166.781         0.945699         91.8238         0.945731         91.8198         0.325097         170.423
77.345                  0.325271        -166.891         0.945648         91.5456          0.94568         91.5418         0.325244         169.977
77.38                   0.325416        -167.001         0.945597         91.2675         0.945629         91.2637          0.32539         169.531
77.415                   0.32556        -167.112         0.945547         90.9894         0.945579         90.9856         0.325534         169.085
77.45                   0.325704        -167.222         0.945498         90.7113         0.945529         90.7076         0.325678         168.639
77.485                  0.325845        -167.332         0.945449         90.4332         0.945479         90.4295          0.32582         168.193
77.52                   0.325986        -167.442           0.9454         90.1552          0.94543         90.1515         0.325962         167.747
77.555                  0.326125        -167.552         0.945352         89.8771         0.945381         89.8735         0.326102           167.3
77.59                   0.326263        -167.662         0.945304          89.599         0.945332         89.5954          0.32624         166.854
77.625                    0.3264        -167.772         0.945256          89.321         0.945284         89.3174         0.326378         166.408
77.66                   0.326536        -167.882         0.945209         89.0429         0.945237         89.0394         0.326514         165.962
77.695                  0.326671        -167.992         0.945162         88.7649          0.94519         88.7614         0.326649         165.516
77.73                   0.326804        -168.102         0.945116         88.4869         0.945143         88.4835         0.326783          165.07
77.765                  0.326936        -168.212          0.94507         88.2088         0.945096         88.2055         0.326916         164.624
77.8                    0.327067        -168.322         0.945024         87.9308          0.94505         87.9275         0.327048         164.178
77.835                  0.327196        -168.432         0.944979         87.6528         0.945005         87.6496         0.327178         163.732
77.87                   0.327325        -168.542         0.944934         87.3748         0.944959         87.3716         0.327307         163.286
77.905                  0.327452        -168.652          0.94489         87.0968         0.944915         87.0937         0.327435          162.84
77.94                   0.327578        -168.762         0.944846         86.8189          0.94487         86.8158         0.327562         162.394
77.975                  0.327702        -168.872         0.944802         86.5409         0.944826         86.5379         0.327687         161.948
78.01                   0.327826        -168.982         0.944759         86.2629         0.944782           86.26         0.327812         161.501
78.045                  0.327948        -169.091         0.944716          85.985         0.944739         85.9821         0.327935         161.055
78.08                   0.328069        -169.201         0.944674          85.707         0.944696         85.7042         0.328057         160.609
78.115                  0.328189        -169.311         0.944632         85.4291         0.944654         85.4263         0.328177         160.163
78.15                   0.328308        -169.421          0.94459         85.1512         0.944612         85.1484         0.328297         159.717
78.185                  0.328425        -169.531         0.944549         84.8732          0.94457         84.8706         0.328415         159.271
78.22                   0.328541        -169.641         0.944508         84.5953         0.944529         84.5927         0.328532         158.825
78.255                  0.328656        -169.751         0.944468         84.3174         0.944488         84.3149         0.328648         158.379
78.29                    0.32877         -169.86         0.944428         84.0395         0.944448          84.037         0.328763         157.933
78.325                  0.328882         -169.97         0.944388         83.7616         0.944408         83.7592         0.328876         157.487
78.36                   0.328994         -170.08         0.944349         83.4838         0.944369         83.4814         0.328988         157.042
78.395                  0.329104         -170.19          0.94431         83.2059         0.944329         83.2036         0.329099         156.596
78.43                   0.329212          -170.3         0.944272          82.928         0.944291         82.9258         0.329209          156.15
78.465                   0.32932        -170.409         0.944234         82.6502         0.944252          82.648         0.329318         155.704
78.5                    0.329426        -170.519         0.944197         82.3723         0.944214         82.3703         0.329425         155.258
78.535                  0.329532        -170.629          0.94416         82.0945         0.944177         82.0925         0.329531         154.812
78.57                   0.329636        -170.739         0.944123         81.8167          0.94414         81.8147         0.329636         154.366
78.605                  0.329738        -170.848         0.944087         81.5388         0.944103          81.537          0.32974          153.92
78.64                    0.32984        -170.958         0.944051          81.261         0.944067         81.2592         0.329842         153.474
78.675                   0.32994        -171.068         0.944015         80.9832         0.944031         80.9815         0.329944         153.028
78.71                   0.330039        -171.177          0.94398         80.7054         0.943996         80.7038         0.330044         152.582
78.745                  0.330137        -171.287         0.943946         80.4277         0.943961         80.4261         0.330143         152.136
78.78                   0.330234        -171.397         0.943911         80.1499         0.943926         80.1484          0.33024         151.691
78.815                  0.330329        -171.506         0.943878         79.8721         0.943892         79.8707         0.330337         151.245
78.85                   0.330423        -171.616         0.943844         79.5943         0.943858          79.593         0.330432         150.799
78.885                  0.330516        -171.726         0.943811         79.3166         0.943825         79.3153         0.330526         150.353
78.92                   0.330608        -171.835         0.943779         79.0388         0.943792         79.0376         0.330619         149.907
78.955                  0.330698        -171.945         0.943747         78.7611         0.943759           78.76         0.330711         149.461
78.99                   0.330788        -172.055         0.943715         78.4834         0.943727         78.4823         0.330801         149.016
79.025                  0.330876        -172.164         0.943684         78.2057         0.943696         78.2047          0.33089          148.57
79.06                   0.330963        -172.274         0.943653         77.9279         0.943664          77.927         0.330978         148.124
79.095                  0.331048        -172.384         0.943622         77.6502         0.943634         77.6494         0.331065         147.678
79.13                   0.331133        -172.493         0.943592         77.3725         0.943603         77.3718          0.33115         147.232
79.165                  0.331216        -172.603         0.943563         77.0949         0.943573         77.0941         0.331235         146.787
79.2                    0.331298        -172.712         0.943534         76.8172         0.943544         76.8165         0.331318         146.341
79.235                  0.331379        -172.822         0.943505         76.5395         0.943515         76.5389         0.331399         145.895
79.27                   0.331458        -172.931         0.943476         76.2618         0.943486         76.2613          0.33148         145.449
79.305                  0.331536        -173.041         0.943448         75.9842         0.943458         75.9838          0.33156         145.004
79.34                   0.331614        -173.151         0.943421         75.7065          0.94343         75.7062         0.331638         144.558
79.375                  0.331689         -173.26         0.943394         75.4289         0.943402         75.4286         0.331715         144.112
79.41                   0.331764         -173.37         0.943367         75.1512         0.943375         75.1511         0.331791         143.667
79.445                  0.331838        -173.479         0.943341         74.8736         0.943349         74.8735         0.331865         143.221
79.48                    0.33191        -173.589         0.943315          74.596         0.943323          74.596         0.331938         142.775
79.515                  0.331981        -173.698          0.94329         74.3184         0.943297         74.3184         0.332011          142.33
79.55                   0.332051        -173.808         0.943265         74.0408         0.943272         74.0409         0.332081         141.884
79.585                  0.332119        -173.917          0.94324         73.7632         0.943247         73.7634         0.332151         141.438
79.62                   0.332187        -174.027         0.943216         73.4856         0.943222         73.4859          0.33222         140.993
79.655                  0.332253        -174.136         0.943192          73.208         0.943198         73.2083         0.332287         140.547
79.69                   0.332318        -174.246         0.943169         72.9304         0.943175         72.9308         0.332353         140.101
79.725                  0.332381        -174.355         0.943146         72.6529         0.943152         72.6534         0.332418         139.656
79.76                   0.332444        -174.465         0.943124         72.3753         0.943129         72.3759         0.332481          139.21
79.795                  0.332505        -174.574         0.943102         72.0977         0.943107         72.0984         0.332544         138.764
79.83                   0.332565        -174.684          0.94308         71.8202         0.943085         71.8209         0.332605         138.319
79.865                  0.332624        -174.793         0.943059         71.5427         0.943063         71.5434         0.332665         137.873
79.9                    0.332681        -174.903         0.943038         71.2651         0.943042          71.266         0.332723         137.428
79.935                  0.332738        -175.012         0.943018         70.9876         0.943022         70.9885         0.332781         136.982
79.97                   0.332793        -175.121         0.942998         70.7101         0.943002         70.7111         0.332837         136.537
80.005                  0.332847        -175.231         0.942978         70.4326         0.942982         70.4336         0.332892         136.091
80.04                     0.3329         -175.34         0.942959         70.1551         0.942963         70.1562         0.332946         135.645
80.075                  0.332951         -175.45         0.942941         69.8776         0.942944         69.8788         0.332998           135.2
80.11                   0.333001        -175.559         0.942923         69.6001         0.942925         69.6013          0.33305         134.754
80.145                  0.333051        -175.668         0.942905         69.3226         0.942907         69.3239           0.3331         134.309
80.18                   0.333098        -175.778         0.942887         69.0451          0.94289         69.0465         0.333149         133.863
80.215                  0.333145        -175.887         0.942871         68.7676         0.942873         68.7691         0.333196         133.418
80.25                    0.33319        -175.997         0.942854         68.4901         0.942856         68.4917         0.333243         132.972
80.285                  0.333235        -176.106         0.942838         68.2127          0.94284         68.2143         0.333288         132.527
80.32                   0.333278        -176.215         0.942822         67.9352         0.942824         67.9369         0.333332         132.081
80.355                  0.333319        -176.325         0.942807         67.6578         0.942808         67.6596         0.333375         131.636
80.39                    0.33336        -176.434         0.942792         67.3803         0.942793         67.3822         0.333416         131.191
80.425                  0.333399        -176.544         0.942778         67.1029         0.942779         67.1048         0.333457         130.745
80.46                   0.333437        -176.653         0.942764         66.8255         0.942765         66.8274         0.333496           130.3
80.495                  0.333474        -176.762         0.942751          66.548         0.942751         66.5501         0.333534         129.854
80.53                    0.33351        -176.872         0.942738         66.2706         0.942738         66.2727          0.33357         129.409
80.565                  0.333544        -176.981         0.942725         65.9932         0.942725         65.9954         0.333606         128.963
80.6                    0.333578         -177.09         0.942713         65.7158         0.942713          65.718          0.33364         128.518
80.635                   0.33361          -177.2         0.942701         65.4384         0.942701         65.4407         0.333673         128.073
80.67                   0.333641        -177.309          0.94269          65.161         0.942689         65.1633         0.333704         127.627
80.705                   0.33367        -177.418         0.942679         64.8836         0.942678          64.886         0.333735         127.182
80.74                   0.333699        -177.528         0.942668         64.6062         0.942668         64.6087         0.333764         126.736
80.775                  0.333726        -177.637         0.942658         64.3288         0.942658         64.3314         0.333792         126.291
80.81                   0.333752        -177.746         0.942649         64.0514         0.942648          64.054         0.333819         125.846
80.845                  0.333776        -177.856          0.94264          63.774         0.942639         63.7767         0.333845           125.4
80.88                     0.3338        -177.965         0.942631         63.4967          0.94263         63.4994         0.333869         124.955
80.915                  0.333822        -178.074         0.942623         63.2193         0.942621         63.2221         0.333892          124.51
80.95                   0.333843        -178.184         0.942615         62.9419         0.942613         62.9448         0.333914         124.064
80.985                  0.333863        -178.293         0.942607         62.6646         0.942606         62.6675         0.333935         123.619
81.02                   0.333882        -178.402           0.9426         62.3872         0.942599         62.3902         0.333954         123.174
81.055                  0.333899        -178.512         0.942594         62.1099         0.942592         62.1129         0.333972         122.728
81.09                   0.333915        -178.621         0.942588         61.8325         0.942586         61.8356         0.333989         122.283
81.125                   0.33393         -178.73         0.942582         61.5552          0.94258         61.5583         0.334005         121.838
81.16                   0.333944        -178.839         0.942577         61.2779         0.942575         61.2811          0.33402         121.392
81.195                  0.333957        -178.949         0.942572         61.0005          0.94257         61.0038         0.334033         120.947
81.23                   0.333968        -179.058         0.942567         60.7232         0.942565         60.7265         0.334045         120.502
81.265                  0.333978        -179.167         0.942563         60.4459         0.942561         60.4492         0.334056         120.056
81.3                    0.333987        -179.277          0.94256         60.1685         0.942557          60.172         0.334066         119.611
81.335                  0.333995        -179.386         0.942557         59.8912         0.942554         59.8947         0.334074         119.166
81.37                   0.334001        -179.495         0.942554         59.6139         0.942551         59.6174         0.334081         118.721
81.405                  0.334006        -179.604         0.942552         59.3366         0.942549         59.3402         0.334087         118.275
81.44                    0.33401        -179.714          0.94255         59.0593         0.942547         59.0629         0.334092          117.83
81.475                  0.334013        -179.823         0.942548          58.782         0.942546         58.7857         0.334095         117.385
81.51                   0.334015        -179.932         0.942547         58.5047         0.942545         58.5084         0.334097          116.94
81.545                  0.334015         179.959         0.942547         58.2274         0.942544         58.2312         0.334098         116.494
81.58                   0.334014         179.849         0.942547         57.9501         0.942544         57.9539         0.334098         116.049
81.615                  0.334012          179.74         0.942547         57.6728         0.942545         57.6767         0.334097         115.604
81.65                   0.334009         179.631         0.942548         57.3955         0.942545         57.3994         0.334094         115.159
81.685                  0.334005         179.521         0.942549         57.1182         0.942546         57.1222          0.33409         114.713
81.72                   0.333999         179.412         0.942551         56.8409         0.942548         56.8449         0.334085         114.268
81.755                  0.333992         179.303         0.942553         56.5636          0.94255         56.5677         0.334079         113.823
81.79                   0.333984         179.194         0.942555         56.2864         0.942553         56.2904         0.334071         113.378
81.825                  0.333975         179.084         0.942558         56.0091         0.942556         56.0132         0.334062         112.933
81.86                   0.333964         178.975         0.942562         55.7318         0.942559          55.736         0.334052         112.487
81.895                  0.333952         178.866         0.942565         55.4545         0.942563         55.4587         0.334041         112.042