! TOUCHSTONE file generated by CST MICROWAVE STUDIO
! Date and time: Wed Feb 14 23:05:57 2024
! Project name: material_rotado.cst
! Parameters = {angY=0.25}
! Header version: 2018
! Port assignment regex: !\s*Touchstone port\s*([0-9]+)\s*=\s*(CST MWS port|CST DS port)\s*([0-9]+|Zmin|Zmax)\s*\(\"(.*)\"\)(\s*mode\s*([0-9]+))?.*
! Touchstone port assignment:
! Touchstone port 1 = CST MWS port 1 ("")
! Touchstone port 2 = CST MWS port 2 ("")
# GHz S MA R 376.7
75                      0.313582        -163.817         0.949561         110.029         0.949561         110.029         0.313582        -156.125
75.035                    0.3138        -164.258         0.949487         109.588         0.949487         109.588         0.313814        -156.564
75.07                   0.314018        -164.699         0.949412         109.146         0.949412         109.146         0.314045        -157.003
75.105                  0.314235        -165.141         0.949338         108.703         0.949338         108.703         0.314274        -157.442
75.14                   0.314451        -165.583         0.949264         108.261         0.949264         108.261         0.314503        -157.881
75.175                  0.314666        -166.025         0.949191         107.819         0.949191         107.819          0.31473        -158.321
75.21                   0.314881        -166.467         0.949118         107.376         0.949118         107.376         0.314957        -158.761
75.245                  0.315095        -166.909         0.949045         106.934         0.949045         106.934         0.315182        -159.201
75.28                   0.315308        -167.352         0.948972         106.491         0.948972         106.491         0.315406        -159.641
75.315                   0.31552        -167.794           0.9489         106.048           0.9489         106.048         0.315628        -160.081
75.35                   0.315731        -168.237         0.948828         105.605         0.948828         105.605          0.31585        -160.521
75.385                  0.315941         -168.68         0.948756         105.162         0.948756         105.162         0.316071        -160.962
75.42                   0.316151        -169.123         0.948685         104.719         0.948685         104.719          0.31629        -161.402
75.455                   0.31636        -169.567         0.948613         104.276         0.948613         104.276         0.316508        -161.843
75.49                   0.316567         -170.01         0.948543         103.833         0.948543         103.833         0.316725        -162.284
75.525                  0.316774        -170.454         0.948472         103.389         0.948472         103.389          0.31694        -162.725
75.56                    0.31698        -170.898         0.948402         102.946         0.948402         102.946         0.317155        -163.166
75.595                  0.317185        -171.342         0.948332         102.502         0.948332         102.502         0.317368        -163.607
75.63                    0.31739        -171.786         0.948262         102.058         0.948262         102.058          0.31758        -164.048
75.665                  0.317593         -172.23         0.948193         101.614         0.948193         101.614         0.317791        -164.489
75.7                    0.317796        -172.675         0.948124         101.171         0.948124         101.171         0.318001        -164.931
75.735                  0.317997        -173.119         0.948055         100.727         0.948055         100.727         0.318209        -165.373
75.77                   0.318198        -173.564         0.947987         100.283         0.947987         100.283         0.318417        -165.814
75.805                  0.318397        -174.009         0.947919         99.8384         0.947919         99.8384         0.318623        -166.256
75.84                   0.318596        -174.454         0.947851         99.3941         0.947851         99.3941         0.318827        -166.698
75.875                  0.318794        -174.899         0.947784         98.9498         0.947784         98.9498         0.319031         -167.14
75.91                    0.31899        -175.344         0.947717         98.5054         0.947717         98.5054         0.319233        -167.582
75.945                  0.319186        -175.789          0.94765         98.0609          0.94765         98.0609         0.319434        -168.024
75.98                   0.319381        -176.235         0.947584         97.6164         0.947584         97.6164         0.319634        -168.467
76.015                  0.319575         -176.68         0.947518         97.1718         0.947518         97.1718         0.319833        -168.909
76.05                   0.319768        -177.126         0.947452         96.7271         0.947452         96.7271          0.32003        -169.352
76.085                   0.31996        -177.572         0.947387         96.2823         0.947387         96.2823         0.320226        -169.794
76.12                    0.32015        -178.018         0.947322         95.8375         0.947322         95.8375         0.320421        -170.237
76.155                   0.32034        -178.464         0.947257         95.3925         0.947257         95.3925         0.320614         -170.68
76.19                   0.320529         -178.91         0.947193         94.9476         0.947193         94.9476         0.320807        -171.123
76.225                  0.320717        -179.357         0.947129         94.5025         0.947129         94.5025         0.320998        -171.566
76.26                   0.320904        -179.803         0.947065         94.0574         0.947065         94.0574         0.321188        -172.009
76.295                  0.321089          179.75         0.947002         93.6123         0.947002         93.6123         0.321376        -172.452
76.33                   0.321274         179.304         0.946939          93.167         0.946939          93.167         0.321563        -172.895
76.365                  0.321458         178.857         0.946876         92.7217         0.946876         92.7217         0.321749        -173.338
76.4                     0.32164          178.41         0.946814         92.2764         0.946814         92.2764         0.321934        -173.782
76.435                  0.321822         177.963         0.946752          91.831         0.946752          91.831         0.322117        -174.225
76.47                   0.322002         177.516         0.946691         91.3855         0.946691         91.3855         0.322299        -174.669
76.505                  0.322182         177.069          0.94663           90.94          0.94663           90.94          0.32248        -175.112
76.54                    0.32236         176.622         0.946569         90.4945         0.946569         90.4945         0.322659        -175.556
76.575                  0.322537         176.175         0.946509         90.0489         0.946509         90.0489         0.322838        -175.999
76.61                   0.322713         175.727         0.946449         89.6032         0.946449         89.6032         0.323015        -176.443
76.645                  0.322888          175.28         0.946389         89.1575         0.946389         89.1575          0.32319        -176.887
76.68                   0.323062         174.832          0.94633         88.7117          0.94633         88.7117         0.323364        -177.331
76.715                  0.323235         174.384         0.946271         88.2659         0.946271         88.2659         0.323537        -177.775
76.75                   0.323406         173.937         0.946212         87.8201         0.946212         87.8201         0.323709        -178.219
76.785                  0.323577         173.489         0.946154         87.3742         0.946154         87.3742          0.32388        -178.663
76.82                   0.323746         173.041         0.946096         86.9283         0.946096         86.9283         0.324049        -179.107
76.855                  0.323914         172.593         0.946039         86.4823         0.946039         86.4823         0.324216        -179.551
76.89                   0.324082         172.145         0.945982         86.0363         0.945982         86.0363         0.324383        -179.995
76.925                  0.324248         171.697         0.945926         85.5903         0.945926         85.5903         0.324548         179.561
76.96                   0.324412         171.249         0.945869         85.1442         0.945869         85.1442         0.324712         179.116
76.995                  0.324576         170.801         0.945814         84.6981         0.945814         84.6981         0.324874         178.672
77.03                   0.324738         170.352         0.945758         84.2519         0.945758         84.2519         0.325035         178.228
77.065                    0.3249         169.904         0.945703         83.8057         0.945703         83.8057         0.325195         177.783
77.1                     0.32506         169.455         0.945648         83.3595         0.945648         83.3595         0.325354         177.339
77.135                  0.325219         169.007         0.945594         82.9133         0.945594         82.9133         0.325511         176.895
77.17                   0.325377         168.558          0.94554          82.467          0.94554          82.467         0.325667          176.45
77.205                  0.325533          168.11         0.945487         82.0207         0.945487         82.0207         0.325822         176.005
77.24                   0.325689         167.661         0.945434         81.5744         0.945434         81.5744         0.325975         175.561
77.275                  0.325843         167.212         0.945381          81.128         0.945381          81.128         0.326127         175.116
77.31                   0.325996         166.764         0.945329         80.6817         0.945329         80.6817         0.326277         174.672
77.345                  0.326148         166.315         0.945277         80.2353         0.945277         80.2353         0.326427         174.227
77.38                   0.326298         165.866         0.945226         79.7888         0.945226         79.7888         0.326574         173.782
77.415                  0.326447         165.417         0.945175         79.3424         0.945175         79.3424         0.326721         173.338
77.45                   0.326596         164.968         0.945124         78.8959         0.945124         78.8959         0.326866         172.893
77.485                  0.326742         164.519         0.945074         78.4495         0.945074         78.4495          0.32701         172.448
77.52                   0.326888          164.07         0.945024          78.003         0.945024          78.003         0.327153         172.003
77.555                  0.327033         163.621         0.944975         77.5564         0.944975         77.5564         0.327294         171.559
77.59                   0.327176         163.172         0.944926         77.1099         0.944926         77.1099         0.327434         171.114
77.625                  0.327318         162.723         0.944877         76.6634         0.944877         76.6634         0.327572         170.669
77.66                   0.327458         162.274         0.944829         76.2168         0.944829         76.2168          0.32771         170.224
77.695                  0.327598         161.825         0.944782         75.7702         0.944782         75.7702         0.327846         169.779
77.73                   0.327736         161.375         0.944734         75.3236         0.944734         75.3236          0.32798         169.334
77.765                  0.327873         160.926         0.944687          74.877         0.944687          74.877         0.328113         168.889
77.8                    0.328009         160.477         0.944641         74.4304         0.944641         74.4304         0.328245         168.444
77.835                  0.328143         160.027         0.944595         73.9838         0.944595         73.9838         0.328376         167.999
77.87                   0.328276         159.578         0.944549         73.5372         0.944549         73.5372         0.328505         167.555
77.905                  0.328408         159.129         0.944504         73.0905         0.944504         73.0905         0.328633          167.11
77.94                   0.328539         158.679          0.94446         72.6439          0.94446         72.6439         0.328759         166.665
77.975                  0.328668          158.23         0.944415         72.1973         0.944415         72.1973         0.328884          166.22
78.01                   0.328796          157.78         0.944371         71.7506         0.944371         71.7506         0.329008         165.775
78.045                  0.328923         157.331         0.944328         71.3039         0.944328         71.3039         0.329131          165.33
78.08                   0.329049         156.882         0.944285         70.8573         0.944285         70.8573         0.329252         164.885
78.115                  0.329173         156.432         0.944242         70.4106         0.944242         70.4106         0.329372          164.44
78.15                   0.329296         155.983           0.9442         69.9639           0.9442         69.9639          0.32949         163.995
78.185                  0.329417         155.533         0.944159         69.5173         0.944159         69.5173         0.329607          163.55
78.22                   0.329538         155.084         0.944117         69.0706         0.944117         69.0706         0.329723         163.105
78.255                  0.329657         154.634         0.944077         68.6239         0.944077         68.6239         0.329837          162.66
78.29                   0.329774         154.184         0.944036         68.1773         0.944036         68.1773          0.32995         162.215
78.325                  0.329891         153.735         0.943996         67.7306         0.943996         67.7306         0.330062          161.77
78.36                   0.330006         153.285         0.943957         67.2839         0.943957         67.2839         0.330172         161.325
78.395                  0.330119         152.836         0.943918         66.8373         0.943918         66.8373         0.330281          160.88
78.43                   0.330232         152.386         0.943879         66.3906         0.943879         66.3906         0.330389         160.435
78.465                  0.330343         151.937         0.943841         65.9439         0.943841         65.9439         0.330495          159.99
78.5                    0.330453         151.487         0.943803         65.4973         0.943803         65.4973           0.3306         159.545
78.535                  0.330561         151.037         0.943766         65.0507         0.943766         65.0507         0.330704           159.1
78.57                   0.330668         150.588         0.943729          64.604         0.943729          64.604         0.330806         158.655
78.605                  0.330774         150.138         0.943693         64.1574         0.943693         64.1574         0.330907          158.21
78.64                   0.330879         149.689         0.943657         63.7108         0.943657         63.7108         0.331007         157.765
78.675                  0.330982         149.239         0.943621         63.2641         0.943621         63.2641         0.331105          157.32
78.71                   0.331084         148.789         0.943586         62.8175         0.943586         62.8175         0.331202         156.876
78.745                  0.331184          148.34         0.943552         62.3709         0.943552         62.3709         0.331298         156.431
78.78                   0.331284          147.89         0.943518         61.9243         0.943518         61.9243         0.331392         155.986
78.815                  0.331381         147.441         0.943484         61.4777         0.943484         61.4777         0.331485         155.541
78.85                   0.331478         146.991         0.943451         61.0312         0.943451         61.0312         0.331577         155.096
78.885                  0.331573         146.542         0.943418         60.5846         0.943418         60.5846         0.331667         154.651
78.92                   0.331667         146.092         0.943386         60.1381         0.943386         60.1381         0.331756         154.207
78.955                  0.331759         145.643         0.943354         59.6915         0.943354         59.6915         0.331844         153.762
78.99                    0.33185         145.193         0.943322          59.245         0.943322          59.245          0.33193         153.317
79.025                   0.33194         144.744         0.943291         58.7985         0.943291         58.7985         0.332015         152.872
79.06                   0.332029         144.294         0.943261          58.352         0.943261          58.352         0.332098         152.428
79.095                  0.332116         143.845         0.943231         57.9055         0.943231         57.9055          0.33218         151.983
79.13                   0.332201         143.395         0.943201          57.459         0.943201          57.459         0.332261         151.538
79.165                  0.332286         142.946         0.943172         57.0126         0.943172         57.0126         0.332341         151.093
79.2                    0.332369         142.496         0.943144         56.5661         0.943144         56.5661         0.332419         150.649
79.235                   0.33245         142.047         0.943115         56.1197         0.943115         56.1197         0.332496         150.204
79.27                   0.332531         141.597         0.943088         55.6733         0.943088         55.6733         0.332572          149.76
79.305                   0.33261         141.148          0.94306         55.2269          0.94306         55.2269         0.332646         149.315
79.34                   0.332687         140.699         0.943034         54.7805         0.943034         54.7805         0.332719          148.87
79.375                  0.332763         140.249         0.943007         54.3341         0.943007         54.3341          0.33279         148.426
79.41                   0.332838           139.8         0.942981         53.8878         0.942981         53.8878         0.332861         147.981
79.445                  0.332912         139.351         0.942956         53.4415         0.942956         53.4415          0.33293         147.537
79.48                   0.332984         138.901         0.942931         52.9951         0.942931         52.9951         0.332997         147.092
79.515                  0.333055         138.452         0.942907         52.5488         0.942907         52.5488         0.333063         146.648
79.55                   0.333124         138.003         0.942883         52.1026         0.942883         52.1026         0.333128         146.203
79.585                  0.333192         137.554         0.942859         51.6563         0.942859         51.6563         0.333192         145.759
79.62                   0.333259         137.104         0.942836         51.2101         0.942836         51.2101         0.333254         145.315
79.655                  0.333324         136.655         0.942813         50.7638         0.942813         50.7638         0.333315          144.87
79.69                   0.333388         136.206         0.942791         50.3176         0.942791         50.3176         0.333375         144.426
79.725                   0.33345         135.757          0.94277         49.8715          0.94277         49.8715         0.333433         143.982
79.76                   0.333512         135.308         0.942748         49.4253         0.942748         49.4253          0.33349         143.537
79.795                  0.333571         134.859         0.942728         48.9791         0.942728         48.9791         0.333546         143.093
79.83                    0.33363          134.41         0.942707          48.533         0.942707          48.533           0.3336         142.649
79.865                  0.333687         133.961         0.942688         48.0869         0.942688         48.0869         0.333653         142.205
79.9                    0.333743         133.512         0.942668         47.6408         0.942668         47.6408         0.333705         141.761
79.935                  0.333797         133.063         0.942649         47.1948         0.942649         47.1948         0.333755         141.316
79.97                    0.33385         132.614         0.942631         46.7487         0.942631         46.7487         0.333804         140.872
80.005                  0.333902         132.165         0.942613         46.3027         0.942613         46.3027         0.333852         140.428
80.04                   0.333952         131.716         0.942596         45.8567         0.942596         45.8567         0.333899         139.984
80.075                  0.334001         131.267         0.942579         45.4107         0.942579         45.4107         0.333944          139.54
80.11                   0.334048         130.818         0.942562         44.9647         0.942562         44.9647         0.333988         139.096
80.145                  0.334094         130.369         0.942546         44.5188         0.942546         44.5188          0.33403         138.652
80.18                   0.334139         129.921         0.942531         44.0729         0.942531         44.0729         0.334071         138.208
80.215                  0.334182         129.472         0.942515          43.627         0.942515          43.627         0.334111         137.764
80.25                   0.334224         129.023         0.942501         43.1811         0.942501         43.1811          0.33415          137.32
80.285                  0.334265         128.574         0.942487         42.7353         0.942487         42.7353         0.334187         136.876
80.32                   0.334304         128.126         0.942473         42.2894         0.942473         42.2894         0.334223         136.433
80.355                  0.334342         127.677          0.94246         41.8436          0.94246         41.8436         0.334258         135.989
80.39                   0.334379         127.229         0.942447         41.3978         0.942447         41.3978         0.334291         135.545
80.425                  0.334414          126.78         0.942435         40.9521         0.942435         40.9521         0.334323         135.101
80.46                   0.334448         126.331         0.942423         40.5063         0.942423         40.5063         0.334354         134.658
80.495                   0.33448         125.883         0.942412         40.0606         0.942412         40.0606         0.334383         134.214
80.53                   0.334511         125.434         0.942401         39.6149         0.942401         39.6149         0.334411          133.77
80.565                  0.334541         124.986         0.942391         39.1692         0.942391         39.1692         0.334438         133.327
80.6                    0.334569         124.538         0.942381         38.7235         0.942381         38.7235         0.334464         132.883
80.635                  0.334596         124.089         0.942372         38.2779         0.942372         38.2779         0.334488         132.439
80.67                   0.334621         123.641         0.942363         37.8323         0.942363         37.8323         0.334511         131.996
80.705                  0.334646         123.193         0.942354         37.3867         0.942354         37.3867         0.334532         131.552
80.74                   0.334668         122.744         0.942346         36.9411         0.942346         36.9411         0.334553         131.109
80.775                   0.33469         122.296         0.942339         36.4955         0.942339         36.4955         0.334572         130.665
80.81                    0.33471         121.848         0.942332           36.05         0.942332           36.05         0.334589         130.222
80.845                  0.334729           121.4         0.942325         35.6045         0.942325         35.6045         0.334606         129.779
80.88                   0.334746         120.951         0.942319          35.159         0.942319          35.159         0.334621         129.335
80.915                  0.334762         120.503         0.942314         34.7135         0.942314         34.7135         0.334635         128.892
80.95                   0.334777         120.055         0.942308         34.2681         0.942308         34.2681         0.334647         128.448
80.985                   0.33479         119.607         0.942304         33.8227         0.942304         33.8227         0.334659         128.005
81.02                   0.334802         119.159           0.9423         33.3773           0.9423         33.3773         0.334668         127.562
81.055                  0.334812         118.711         0.942296         32.9319         0.942296         32.9319         0.334677         127.119
81.09                   0.334821         118.263         0.942293         32.4865         0.942293         32.4865         0.334684         126.675
81.125                  0.334829         117.815          0.94229         32.0412          0.94229         32.0412         0.334691         126.232
81.16                   0.334836         117.367         0.942288         31.5959         0.942288         31.5959         0.334695         125.789
81.195                  0.334841         116.919         0.942286         31.1506         0.942286         31.1506         0.334699         125.346
81.23                   0.334844         116.472         0.942285         30.7053         0.942285         30.7053         0.334701         124.903
81.265                  0.334847         116.024         0.942284           30.26         0.942284           30.26         0.334702          124.46
81.3                    0.334848         115.576         0.942284         29.8148         0.942284         29.8148         0.334702         124.017
81.335                  0.334847         115.128         0.942284         29.3696         0.942284         29.3696           0.3347         123.574
81.37                   0.334846         114.681         0.942284         28.9244         0.942284         28.9244         0.334697         123.131
81.405                  0.334842         114.233         0.942285         28.4792         0.942285         28.4792         0.334693         122.688
81.44                   0.334838         113.785         0.942287          28.034         0.942287          28.034         0.334687         122.245
81.475                  0.334832         113.338         0.942289         27.5889         0.942289         27.5889          0.33468         121.802
81.51                   0.334825          112.89         0.942291         27.1437         0.942291         27.1437         0.334672         121.359
81.545                  0.334817         112.442         0.942294         26.6986         0.942294         26.6986         0.334663         120.916
81.58                   0.334807         111.995         0.942298         26.2536         0.942298         26.2536         0.334652         120.473
81.615                  0.334796         111.547         0.942302         25.8085         0.942302         25.8085          0.33464          120.03
81.65                   0.334783           111.1         0.942306         25.3634         0.942306         25.3634         0.334627         119.588
81.685                  0.334769         110.653         0.942311         24.9184         0.942311         24.9184         0.334612         119.145
81.72                   0.334754         110.205         0.942316         24.4734         0.942316         24.4734         0.334597         118.702
81.755                  0.334737         109.758         0.942322         24.0284         0.942322         24.0284         0.334579         118.259
81.79                   0.334719          109.31         0.942329         23.5834         0.942329         23.5834         0.334561         117.817
81.825                    0.3347         108.863         0.942335         23.1385         0.942335         23.1385         0.334541         117.374
81.86                   0.334679         108.416         0.942343         22.6935         0.942343         22.6935          0.33452         116.931
81.895                  0.334657         107.968          0.94235         22.2486          0.94235         22.2486         0.334498         116.489