! TOUCHSTONE file generated by CST MICROWAVE STUDIO
! Date and time: Wed Feb 14 15:06:48 2024
! Project name: material_rotado.cst
! Parameters = {angY=1}
! Header version: 2018
! Port assignment regex: !\s*Touchstone port\s*([0-9]+)\s*=\s*(CST MWS port|CST DS port)\s*([0-9]+|Zmin|Zmax)\s*\(\"(.*)\"\)(\s*mode\s*([0-9]+))?.*
! Touchstone port assignment:
! Touchstone port 1 = CST MWS port 1 ("")
! Touchstone port 2 = CST MWS port 2 ("")
# GHz S MA R 376.7
75                      0.311802        -175.314         0.950147         110.218         0.950147         110.218         0.311802        -144.251
75.035                  0.312037        -175.767         0.950067         109.771         0.950067         109.771         0.312035        -144.691
75.07                   0.312269         -176.22         0.949988         109.325         0.949988         109.325         0.312267         -145.13
75.105                  0.312501        -176.673          0.94991         108.878          0.94991         108.878         0.312497         -145.57
75.14                   0.312731        -177.126         0.949832         108.432         0.949832         108.432         0.312726         -146.01
75.175                  0.312959        -177.579         0.949755         107.985         0.949755         107.985         0.312954         -146.45
75.21                   0.313186        -178.032         0.949678         107.539         0.949678         107.539          0.31318         -146.89
75.245                  0.313412        -178.485         0.949602         107.092         0.949602         107.092         0.313404         -147.33
75.28                   0.313636        -178.938         0.949527         106.646         0.949527         106.646         0.313627         -147.77
75.315                  0.313858        -179.391         0.949452         106.199         0.949452         106.199         0.313849         -148.21
75.35                   0.314079        -179.845         0.949378         105.753         0.949378         105.753          0.31407         -148.65
75.385                  0.314299         179.702         0.949304         105.306         0.949304         105.306         0.314289        -149.089
75.42                   0.314517         179.249         0.949232         104.859         0.949232         104.859         0.314506        -149.529
75.455                  0.314733         178.795         0.949159         104.413         0.949159         104.413         0.314722        -149.969
75.49                   0.314948         178.342         0.949087         103.966         0.949087         103.966         0.314937        -150.409
75.525                  0.315162         177.889         0.949016         103.519         0.949016         103.519          0.31515        -150.849
75.56                   0.315374         177.435         0.948946         103.073         0.948946         103.073         0.315362        -151.289
75.595                  0.315584         176.982         0.948875         102.626         0.948875         102.626         0.315572        -151.728
75.63                   0.315793         176.528         0.948806          102.18         0.948806          102.18         0.315781        -152.168
75.665                  0.316001         176.075         0.948737         101.733         0.948737         101.733         0.315989        -152.608
75.7                    0.316207         175.621         0.948669         101.286         0.948669         101.286         0.316195        -153.048
75.735                  0.316411         175.168         0.948601          100.84         0.948601          100.84         0.316399        -153.488
75.77                   0.316614         174.714         0.948534         100.393         0.948534         100.393         0.316603        -153.927
75.805                  0.316816         174.261         0.948467         99.9464         0.948467         99.9464         0.316804        -154.367
75.84                   0.317016         173.807         0.948401         99.4997         0.948401         99.4997         0.317005        -154.807
75.875                  0.317215         173.354         0.948335         99.0531         0.948335         99.0531         0.317204        -155.247
75.91                   0.317412           172.9          0.94827         98.6065          0.94827         98.6065         0.317401        -155.686
75.945                  0.317607         172.446         0.948205         98.1598         0.948205         98.1598         0.317597        -156.126
75.98                   0.317801         171.993         0.948141         97.7132         0.948141         97.7132         0.317792        -156.566
76.015                  0.317994         171.539         0.948077         97.2666         0.948077         97.2666         0.317985        -157.005
76.05                   0.318185         171.086         0.948014           96.82         0.948014           96.82         0.318176        -157.445
76.085                  0.318375         170.632         0.947952         96.3733         0.947952         96.3733         0.318367        -157.884
76.12                   0.318563         170.178          0.94789         95.9267          0.94789         95.9267         0.318555        -158.324
76.155                  0.318749         169.724         0.947828         95.4801         0.947828         95.4801         0.318743        -158.764
76.19                   0.318934         169.271         0.947767         95.0335         0.947767         95.0335         0.318928        -159.203
76.225                  0.319118         168.817         0.947707          94.587         0.947707          94.587         0.319113        -159.643
76.26                     0.3193         168.363         0.947647         94.1404         0.947647         94.1404         0.319296        -160.082
76.295                  0.319481          167.91         0.947587         93.6938         0.947587         93.6938         0.319477        -160.522
76.33                    0.31966         167.456         0.947528         93.2473         0.947528         93.2473         0.319657        -160.961
76.365                  0.319838         167.002          0.94747         92.8007          0.94747         92.8007         0.319836        -161.401
76.4                    0.320014         166.548         0.947411         92.3542         0.947411         92.3542         0.320013         -161.84
76.435                  0.320189         166.095         0.947354         91.9076         0.947354         91.9076         0.320189        -162.279
76.47                   0.320362         165.641         0.947297         91.4611         0.947297         91.4611         0.320363        -162.719
76.505                  0.320534         165.187          0.94724         91.0146          0.94724         91.0146         0.320536        -163.158
76.54                   0.320704         164.733         0.947184         90.5681         0.947184         90.5681         0.320707        -163.597
76.575                  0.320873          164.28         0.947128         90.1216         0.947128         90.1216         0.320877        -164.037
76.61                    0.32104         163.826         0.947073         89.6752         0.947073         89.6752         0.321045        -164.476
76.645                  0.321206         163.372         0.947018         89.2287         0.947018         89.2287         0.321212        -164.915
76.68                    0.32137         162.918         0.946964         88.7823         0.946964         88.7823         0.321377        -165.354
76.715                  0.321533         162.464          0.94691         88.3358          0.94691         88.3358         0.321541        -165.794
76.75                   0.321694         162.011         0.946857         87.8894         0.946857         87.8894         0.321704        -166.233
76.785                  0.321854         161.557         0.946804          87.443         0.946804          87.443         0.321865        -166.672
76.82                   0.322013         161.103         0.946751         86.9966         0.946751         86.9966         0.322025        -167.111
76.855                  0.322169         160.649         0.946699         86.5503         0.946699         86.5503         0.322183         -167.55
76.89                   0.322325         160.196         0.946648         86.1039         0.946648         86.1039          0.32234        -167.989
76.925                  0.322479         159.742         0.946596         85.6576         0.946596         85.6576         0.322495        -168.428
76.96                   0.322632         159.288         0.946546         85.2112         0.946546         85.2112         0.322649        -168.867
76.995                  0.322783         158.834         0.946496         84.7649         0.946496         84.7649         0.322801        -169.306
77.03                   0.322932          158.38         0.946446         84.3186         0.946446         84.3186         0.322952        -169.745
77.065                   0.32308         157.927         0.946396         83.8724         0.946396         83.8724         0.323101        -170.184
77.1                    0.323227         157.473         0.946347         83.4261         0.946347         83.4261         0.323249        -170.623
77.135                  0.323372         157.019         0.946299         82.9799         0.946299         82.9799         0.323396        -171.062
77.17                   0.323516         156.565         0.946251         82.5336         0.946251         82.5336         0.323541        -171.501
77.205                  0.323659         156.112         0.946203         82.0874         0.946203         82.0874         0.323685        -171.939
77.24                     0.3238         155.658         0.946156         81.6412         0.946156         81.6412         0.323827        -172.378
77.275                  0.323939         155.204         0.946109         81.1951         0.946109         81.1951         0.323967        -172.817
77.31                   0.324077          154.75         0.946063         80.7489         0.946063         80.7489         0.324107        -173.256
77.345                  0.324214         154.297         0.946017         80.3028         0.946017         80.3028         0.324245        -173.694
77.38                   0.324349         153.843         0.945972         79.8566         0.945972         79.8566         0.324381        -174.133
77.415                  0.324482         153.389         0.945927         79.4105         0.945927         79.4105         0.324516        -174.572
77.45                   0.324615         152.936         0.945882         78.9645         0.945882         78.9645         0.324649         -175.01
77.485                  0.324746         152.482         0.945838         78.5184         0.945838         78.5184         0.324781        -175.449
77.52                   0.324875         152.028         0.945794         78.0723         0.945794         78.0723         0.324912        -175.887
77.555                  0.325003         151.574         0.945751         77.6263         0.945751         77.6263         0.325041        -176.326
77.59                   0.325129         151.121         0.945708         77.1803         0.945708         77.1803         0.325169        -176.764
77.625                  0.325255         150.667         0.945666         76.7343         0.945666         76.7343         0.325295        -177.203
77.66                   0.325378         150.213         0.945624         76.2883         0.945624         76.2883          0.32542        -177.641
77.695                  0.325501          149.76         0.945582         75.8424         0.945582         75.8424         0.325543        -178.079
77.73                   0.325621         149.306         0.945541         75.3964         0.945541         75.3964         0.325665        -178.518
77.765                  0.325741         148.852           0.9455         74.9505           0.9455         74.9505         0.325785        -178.956
77.8                    0.325859         148.399          0.94546         74.5046          0.94546         74.5046         0.325904        -179.394
77.835                  0.325976         147.945          0.94542         74.0587          0.94542         74.0587         0.326022        -179.832
77.87                   0.326091         147.492          0.94538         73.6129          0.94538         73.6129         0.326138         179.729
77.905                  0.326205         147.038         0.945341          73.167         0.945341          73.167         0.326252         179.291
77.94                   0.326317         146.584         0.945302         72.7212         0.945302         72.7212         0.326366         178.853
77.975                  0.326428         146.131         0.945264         72.2754         0.945264         72.2754         0.326477         178.415
78.01                   0.326538         145.677         0.945226         71.8296         0.945226         71.8296         0.326588         177.977
78.045                  0.326646         145.224         0.945189         71.3838         0.945189         71.3838         0.326697         177.539
78.08                   0.326753          144.77         0.945152         70.9381         0.945152         70.9381         0.326804         177.101
78.115                  0.326858         144.317         0.945115         70.4923         0.945115         70.4923          0.32691         176.663
78.15                   0.326962         143.863         0.945079         70.0466         0.945079         70.0466         0.327015         176.225
78.185                  0.327065         143.409         0.945043         69.6009         0.945043         69.6009         0.327118         175.787
78.22                   0.327166         142.956         0.945008         69.1552         0.945008         69.1552          0.32722         175.349
78.255                  0.327266         142.502         0.944973         68.7096         0.944973         68.7096          0.32732         174.911
78.29                   0.327365         142.049         0.944938         68.2639         0.944938         68.2639         0.327419         174.473
78.325                  0.327462         141.595         0.944904         67.8183         0.944904         67.8183         0.327516         174.036
78.36                   0.327558         141.142         0.944871         67.3727         0.944871         67.3727         0.327612         173.598
78.395                  0.327652         140.688         0.944837         66.9271         0.944837         66.9271         0.327707          173.16
78.43                   0.327745         140.235         0.944804         66.4815         0.944804         66.4815           0.3278         172.723
78.465                  0.327837         139.781         0.944772         66.0359         0.944772         66.0359         0.327892         172.285
78.5                    0.327928         139.328          0.94474         65.5904          0.94474         65.5904         0.327982         171.847
78.535                  0.328017         138.874         0.944708         65.1449         0.944708         65.1449         0.328071          171.41
78.57                   0.328104         138.421         0.944677         64.6993         0.944677         64.6993         0.328159         170.972
78.605                  0.328191         137.968         0.944646         64.2538         0.944646         64.2538         0.328245         170.535
78.64                   0.328276         137.514         0.944616         63.8084         0.944616         63.8084         0.328329         170.097
78.675                  0.328359         137.061         0.944586         63.3629         0.944586         63.3629         0.328413          169.66
78.71                   0.328442         136.607         0.944556         62.9174         0.944556         62.9174         0.328494         169.222
78.745                  0.328523         136.154         0.944527          62.472         0.944527          62.472         0.328575         168.785
78.78                   0.328603         135.701         0.944498         62.0266         0.944498         62.0266         0.328654         168.348
78.815                  0.328681         135.247          0.94447         61.5812          0.94447         61.5812         0.328731          167.91
78.85                   0.328758         134.794         0.944442         61.1358         0.944442         61.1358         0.328807         167.473
78.885                  0.328834          134.34         0.944415         60.6904         0.944415         60.6904         0.328882         167.036
78.92                   0.328908         133.887         0.944388         60.2451         0.944388         60.2451         0.328955         166.598
78.955                  0.328981         133.434         0.944361         59.7997         0.944361         59.7997         0.329027         166.161
78.99                   0.329053          132.98         0.944335         59.3544         0.944335         59.3544         0.329098         165.724
79.025                  0.329124         132.527         0.944309         58.9091         0.944309         58.9091         0.329167         165.287
79.06                   0.329193         132.074         0.944284         58.4637         0.944284         58.4637         0.329234          164.85
79.095                  0.329261          131.62         0.944259         58.0185         0.944259         58.0185           0.3293         164.413
79.13                   0.329328         131.167         0.944234         57.5732         0.944234         57.5732         0.329365         163.976
79.165                  0.329393         130.714          0.94421         57.1279          0.94421         57.1279         0.329428         163.539
79.2                    0.329457          130.26         0.944186         56.6826         0.944186         56.6826          0.32949         163.102
79.235                   0.32952         129.807         0.944163         56.2374         0.944163         56.2374         0.329551         162.665
79.27                   0.329581         129.354          0.94414         55.7922          0.94414         55.7922          0.32961         162.228
79.305                  0.329642           128.9         0.944118         55.3469         0.944118         55.3469         0.329668         161.791
79.34                   0.329701         128.447         0.944096         54.9017         0.944096         54.9017         0.329724         161.354
79.375                  0.329758         127.994         0.944074         54.4565         0.944074         54.4565         0.329779         160.917
79.41                   0.329815          127.54         0.944053         54.0113         0.944053         54.0113         0.329832         160.481
79.445                   0.32987         127.087         0.944032         53.5662         0.944032         53.5662         0.329884         160.044
79.48                   0.329924         126.634         0.944012          53.121         0.944012          53.121         0.329935         159.607
79.515                  0.329977          126.18         0.943992         52.6758         0.943992         52.6758         0.329984         159.171
79.55                   0.330028         125.727         0.943973         52.2307         0.943973         52.2307         0.330032         158.734
79.585                  0.330078         125.274         0.943954         51.7855         0.943954         51.7855         0.330078         158.297
79.62                   0.330127          124.82         0.943935         51.3404         0.943935         51.3404         0.330123         157.861
79.655                  0.330175         124.367         0.943917         50.8953         0.943917         50.8953         0.330167         157.424
79.69                   0.330222         123.914         0.943899         50.4501         0.943899         50.4501         0.330209         156.988
79.725                  0.330267         123.461         0.943882          50.005         0.943882          50.005          0.33025         156.551
79.76                   0.330311         123.007         0.943865         49.5599         0.943865         49.5599         0.330289         156.115
79.795                  0.330354         122.554         0.943848         49.1148         0.943848         49.1148         0.330327         155.678
79.83                   0.330396         122.101         0.943832         48.6697         0.943832         48.6697         0.330363         155.242
79.865                  0.330436         121.647         0.943817         48.2247         0.943817         48.2247         0.330398         154.805
79.9                    0.330476         121.194         0.943801         47.7796         0.943801         47.7796         0.330431         154.369
79.935                  0.330514         120.741         0.943787         47.3345         0.943787         47.3345         0.330463         153.933
79.97                   0.330551         120.287         0.943772         46.8894         0.943772         46.8894         0.330494         153.497
80.005                  0.330586         119.834         0.943758         46.4444         0.943758         46.4444         0.330523          153.06
80.04                   0.330621         119.381         0.943745         45.9993         0.943745         45.9993          0.33055         152.624
80.075                  0.330654         118.927         0.943732         45.5543         0.943732         45.5543         0.330577         152.188
80.11                   0.330687         118.474         0.943719         45.1092         0.943719         45.1092         0.330601         151.752
80.145                  0.330718         118.021         0.943707         44.6642         0.943707         44.6642         0.330624         151.316
80.18                   0.330748         117.567         0.943695         44.2191         0.943695         44.2191         0.330646          150.88
80.215                  0.330776         117.114         0.943684         43.7741         0.943684         43.7741         0.330666         150.444
80.25                   0.330804          116.66         0.943673          43.329         0.943673          43.329         0.330685         150.008
80.285                  0.330831         116.207         0.943663          42.884         0.943663          42.884         0.330702         149.572
80.32                   0.330856         115.753         0.943653          42.439         0.943653          42.439         0.330718         149.136
80.355                   0.33088           115.3         0.943643         41.9939         0.943643         41.9939         0.330732           148.7
80.39                   0.330903         114.847         0.943634         41.5489         0.943634         41.5489         0.330745         148.265
80.425                  0.330925         114.393         0.943625         41.1039         0.943625         41.1039         0.330755         147.829
80.46                   0.330946          113.94         0.943617         40.6588         0.943617         40.6588         0.330765         147.393
80.495                  0.330966         113.486         0.943609         40.2138         0.943609         40.2138         0.330773         146.958
80.53                   0.330984         113.033         0.943602         39.7688         0.943602         39.7688         0.330779         146.522
80.565                  0.331002         112.579         0.943595         39.3237         0.943595         39.3237         0.330783         146.086
80.6                    0.331018         112.125         0.943588         38.8787         0.943588         38.8787         0.330786         145.651
80.635                  0.331033         111.672         0.943582         38.4337         0.943582         38.4337         0.330788         145.216
80.67                   0.331048         111.218         0.943576         37.9886         0.943576         37.9886         0.330787          144.78
80.705                  0.331061         110.765         0.943571         37.5436         0.943571         37.5436         0.330785         144.345
80.74                   0.331073         110.311         0.943566         37.0985         0.943566         37.0985         0.330781          143.91
80.775                  0.331084         109.857         0.943562         36.6535         0.943562         36.6535         0.330775         143.475
80.81                   0.331094         109.404         0.943558         36.2084         0.943558         36.2084         0.330768          143.04
80.845                  0.331103          108.95         0.943554         35.7634         0.943554         35.7634         0.330758         142.605
80.88                   0.331111         108.496         0.943551         35.3183         0.943551         35.3183         0.330747         142.171
80.915                  0.331117         108.042         0.943549         34.8732         0.943549         34.8732         0.330734         141.736
80.95                   0.331123         107.588         0.943546         34.4281         0.943546         34.4281         0.330719         141.302
80.985                  0.331128         107.134         0.943545         33.9831         0.943545         33.9831         0.330701         140.868
81.02                   0.331131          106.68         0.943543          33.538         0.943543          33.538         0.330682         140.433
81.055                  0.331134         106.226         0.943542         33.0929         0.943542         33.0929         0.330661             140
81.09                   0.331135         105.772         0.943542         32.6478         0.943542         32.6478         0.330638         139.566
81.125                  0.331136         105.318         0.943542         32.2027         0.943542         32.2027         0.330612         139.133
81.16                   0.331135         104.864         0.943542         31.7575         0.943542         31.7575         0.330585           138.7
81.195                  0.331134          104.41         0.943543         31.3124         0.943543         31.3124         0.330555         138.267
81.23                   0.331131         103.956         0.943544         30.8673         0.943544         30.8673         0.330523         137.835
81.265                  0.331128         103.502         0.943546         30.4221         0.943546         30.4221         0.330489         137.403
81.3                    0.331123         103.047         0.943548          29.977         0.943548          29.977         0.330453         136.972
81.335                  0.331117         102.593         0.943551         29.5318         0.943551         29.5318         0.330415         136.541
81.37                   0.331111         102.139         0.943554         29.0866         0.943554         29.0866         0.330375         136.112
81.405                  0.331103         101.684         0.943557         28.6414         0.943557         28.6414         0.330334         135.682
81.44                   0.331094          101.23         0.943561         28.1962         0.943561         28.1962         0.330292         135.254
81.475                  0.331084         100.775         0.943565          27.751         0.943565          27.751         0.330249         134.827
81.51                   0.331074          100.32         0.943569         27.3058         0.943569         27.3058         0.330207         134.401
81.545                  0.331062         99.8656         0.943574         26.8605         0.943574         26.8605         0.330166         133.976
81.58                   0.331049         99.4108          0.94358         26.4153          0.94358         26.4153         0.330128         133.553
81.615                  0.331035         98.9559         0.943586           25.97         0.943586           25.97         0.330095         133.131
81.65                    0.33102         98.5009         0.943592         25.5247         0.943592         25.5247         0.330069          132.71
81.685                  0.331004         98.0459         0.943599         25.0794         0.943599         25.0794         0.330053         132.292
81.72                   0.330987         97.5908         0.943606         24.6341         0.943606         24.6341         0.330049         131.874
81.755                  0.330969         97.1356         0.943613         24.1888         0.943613         24.1888         0.330062         131.457
81.79                    0.33095         96.6803         0.943621         23.7435         0.943621         23.7435         0.330094          131.04
81.825                   0.33093          96.225         0.943629         23.2981         0.943629         23.2981         0.330146         130.622
81.86                   0.330909         95.7695         0.943638         22.8527         0.943638         22.8527         0.330219         130.203
81.895                  0.330886          95.314         0.943647         22.4073         0.943647         22.4073         0.330311          129.78