! TOUCHSTONE file generated by CST MICROWAVE STUDIO
! Date and time: Wed Feb 14 17:05:45 2024
! Project name: material_rotado.cst
! Parameters = {angY=1.5}
! Header version: 2018
! Port assignment regex: !\s*Touchstone port\s*([0-9]+)\s*=\s*(CST MWS port|CST DS port)\s*([0-9]+|Zmin|Zmax)\s*\(\"(.*)\"\)(\s*mode\s*([0-9]+))?.*
! Touchstone port assignment:
! Touchstone port 1 = CST MWS port 1 ("")
! Touchstone port 2 = CST MWS port 2 ("")
# GHz S MA R 376.7
75                      0.308638         177.002          0.95118         110.364          0.95118         110.364         0.308638        -136.274
75.035                  0.308871         176.554         0.951132         109.915         0.951132         109.915           0.3089        -136.705
75.07                   0.309101         176.106         0.951084         109.466         0.951084         109.466          0.30916        -137.136
75.105                   0.30933         175.657         0.951034         109.018         0.951034         109.018         0.309417        -137.567
75.14                   0.309557         175.208         0.950983         108.569         0.950983         108.569         0.309672        -137.998
75.175                  0.309782         174.759          0.95093         108.121          0.95093         108.121         0.309925        -138.429
75.21                   0.310005         174.309         0.950877         107.672         0.950877         107.672         0.310176        -138.861
75.245                  0.310226         173.859         0.950823         107.224         0.950823         107.224         0.310424        -139.292
75.28                   0.310445         173.408         0.950767         106.775         0.950767         106.775          0.31067        -139.724
75.315                  0.310662         172.958         0.950711         106.327         0.950711         106.327         0.310913        -140.156
75.35                   0.310877         172.507         0.950653         105.879         0.950653         105.879         0.311154        -140.588
75.385                   0.31109         172.055         0.950595         105.431         0.950595         105.431         0.311393         -141.02
75.42                   0.311301         171.604         0.950536         104.983         0.950536         104.983         0.311629        -141.452
75.455                  0.311511         171.152         0.950476         104.535         0.950476         104.535         0.311863        -141.885
75.49                   0.311718         170.699         0.950415         104.087         0.950415         104.087         0.312094        -142.317
75.525                  0.311923         170.247         0.950354         103.639         0.950354         103.639         0.312323         -142.75
75.56                   0.312127         169.794         0.950292         103.191         0.950292         103.191          0.31255        -143.182
75.595                  0.312329          169.34         0.950229         102.743         0.950229         102.743         0.312774        -143.615
75.63                   0.312529         168.887         0.950166         102.296         0.950166         102.296         0.312996        -144.048
75.665                  0.312727         168.433         0.950102         101.848         0.950102         101.848         0.313215        -144.481
75.7                    0.312924         167.978         0.950038           101.4         0.950038           101.4         0.313431        -144.914
75.735                  0.313119         167.524         0.949973         100.953         0.949973         100.953         0.313645        -145.348
75.77                   0.313312         167.069         0.949908         100.505         0.949908         100.505         0.313856        -145.781
75.805                  0.313503         166.613         0.949842         100.058         0.949842         100.058         0.314065        -146.214
75.84                   0.313693         166.158         0.949776         99.6108         0.949776         99.6108         0.314271        -146.648
75.875                  0.313882         165.701          0.94971         99.1636          0.94971         99.1636         0.314474        -147.082
75.91                   0.314068         165.245         0.949643         98.7164         0.949643         98.7164         0.314675        -147.516
75.945                  0.314254         164.788         0.949576         98.2693         0.949576         98.2693         0.314873         -147.95
75.98                   0.314438         164.331         0.949509         97.8222         0.949509         97.8222         0.315068        -148.384
76.015                   0.31462         163.874         0.949442         97.3752         0.949442         97.3752          0.31526        -148.818
76.05                   0.314802         163.416         0.949374         96.9283         0.949374         96.9283          0.31545        -149.253
76.085                  0.314982         162.958         0.949307         96.4814         0.949307         96.4814         0.315636        -149.687
76.12                   0.315161         162.499         0.949239         96.0345         0.949239         96.0345         0.315819        -150.122
76.155                  0.315339          162.04         0.949171         95.5878         0.949171         95.5878            0.316        -150.557
76.19                   0.315515         161.581         0.949103          95.141         0.949103          95.141         0.316177        -150.992
76.225                  0.315691         161.121         0.949035         94.6944         0.949035         94.6944         0.316351        -151.428
76.26                   0.315866         160.662         0.948968         94.2477         0.948968         94.2477         0.316522        -151.863
76.295                  0.316041         160.201           0.9489         93.8012           0.9489         93.8012          0.31669        -152.299
76.33                   0.316214         159.741         0.948832         93.3546         0.948832         93.3546         0.316854        -152.735
76.365                  0.316387          159.28         0.948765         92.9082         0.948765         92.9082         0.317015        -153.172
76.4                     0.31656         158.819         0.948697         92.4617         0.948697         92.4617         0.317173        -153.609
76.435                  0.316732         158.357          0.94863         92.0154          0.94863         92.0154         0.317327        -154.046
76.47                   0.316904         157.895         0.948562          91.569         0.948562          91.569         0.317477        -154.484
76.505                  0.317076         157.433         0.948495         91.1227         0.948495         91.1227         0.317624        -154.922
76.54                   0.317247         156.971         0.948429         90.6765         0.948429         90.6765         0.317768        -155.361
76.575                  0.317418         156.508         0.948362         90.2303         0.948362         90.2303         0.317908          -155.8
76.61                    0.31759         156.046         0.948296         89.7841         0.948296         89.7841         0.318046         -156.24
76.645                  0.317762         155.582          0.94823          89.338          0.94823          89.338          0.31818        -156.681
76.68                   0.317934         155.119         0.948164          88.892         0.948164          88.892         0.318311        -157.123
76.715                  0.318106         154.656         0.948099         88.4459         0.948099         88.4459          0.31844        -157.566
76.75                   0.318278         154.192         0.948034         87.9999         0.948034         87.9999         0.318567        -158.011
76.785                  0.318451         153.729         0.947969          87.554         0.947969          87.554         0.318694        -158.456
76.82                   0.318624         153.265         0.947905          87.108         0.947905          87.108          0.31882        -158.903
76.855                  0.318798         152.801         0.947841         86.6621         0.947841         86.6621         0.318948        -159.351
76.89                   0.318973         152.337         0.947777         86.2163         0.947777         86.2163         0.319079        -159.801
76.925                  0.319147         151.874         0.947714         85.7705         0.947714         85.7705         0.319215        -160.253
76.96                   0.319323          151.41         0.947651         85.3247         0.947651         85.3247         0.319358        -160.706
76.995                  0.319498         150.946         0.947589         84.8789         0.947589         84.8789          0.31951        -161.161
77.03                   0.319675         150.483         0.947527         84.4332         0.947527         84.4332         0.319675        -161.616
77.065                  0.319851         150.019         0.947466         83.9875         0.947466         83.9875         0.319853        -162.073
77.1                    0.320028         149.556         0.947405         83.5418         0.947405         83.5418         0.320048        -162.529
77.135                  0.320205         149.093         0.947345         83.0962         0.947345         83.0962          0.32026        -162.985
77.17                   0.320383          148.63         0.947285         82.6505         0.947285         82.6505         0.320489         -163.44
77.205                   0.32056         148.167         0.947225         82.2049         0.947225         82.2049         0.320734        -163.892
77.24                   0.320737         147.704         0.947166         81.7593         0.947166         81.7593         0.320991        -164.342
77.275                  0.320914         147.242         0.947108         81.3138         0.947108         81.3138         0.321257        -164.788
77.31                    0.32109          146.78          0.94705         80.8682          0.94705         80.8682         0.321528        -165.231
77.345                  0.321266         146.319         0.946993         80.4227         0.946993         80.4227         0.321798         -165.67
77.38                   0.321441         145.857         0.946936         79.9772         0.946936         79.9772         0.322063        -166.105
77.415                  0.321616         145.397          0.94688         79.5317          0.94688         79.5317         0.322321        -166.538
77.45                   0.321789         144.936         0.946825         79.0862         0.946825         79.0862         0.322567        -166.968
77.485                  0.321961         144.476          0.94677         78.6408          0.94677         78.6408         0.322801        -167.395
77.52                   0.322132         144.016         0.946716         78.1953         0.946716         78.1953         0.323021        -167.822
77.555                  0.322301         143.556         0.946663         77.7499         0.946663         77.7499         0.323228        -168.247
77.59                   0.322468         143.097          0.94661         77.3045          0.94661         77.3045         0.323422        -168.671
77.625                  0.322634         142.638         0.946558         76.8591         0.946558         76.8591         0.323603        -169.096
77.66                   0.322797         142.179         0.946507         76.4137         0.946507         76.4137         0.323774         -169.52
77.695                  0.322959         141.721         0.946456         75.9683         0.946456         75.9683         0.323934        -169.944
77.73                   0.323118         141.263         0.946406         75.5229         0.946406         75.5229         0.324085        -170.369
77.765                  0.323275         140.805         0.946357         75.0776         0.946357         75.0776         0.324228        -170.794
77.8                    0.323429         140.348         0.946309         74.6322         0.946309         74.6322         0.324364        -171.219
77.835                   0.32358         139.891         0.946261         74.1869         0.946261         74.1869         0.324493        -171.645
77.87                   0.323729         139.434         0.946214         73.7415         0.946214         73.7415         0.324616        -172.071
77.905                  0.323875         138.977         0.946167         73.2962         0.946167         73.2962         0.324735        -172.498
77.94                   0.324019          138.52         0.946121         72.8509         0.946121         72.8509         0.324849        -172.925
77.975                  0.324159         138.064         0.946076         72.4056         0.946076         72.4056         0.324959        -173.353
78.01                   0.324297         137.608         0.946032         71.9603         0.946032         71.9603         0.325065        -173.781
78.045                  0.324432         137.151         0.945988          71.515         0.945988          71.515         0.325169         -174.21
78.08                   0.324564         136.695         0.945945         71.0697         0.945945         71.0697         0.325269        -174.639
78.115                  0.324692          136.24         0.945903         70.6243         0.945903         70.6243         0.325366        -175.068
78.15                   0.324818         135.784         0.945861          70.179         0.945861          70.179         0.325461        -175.497
78.185                  0.324941         135.328          0.94582         69.7337          0.94582         69.7337         0.325553        -175.927
78.22                   0.325062         134.872          0.94578         69.2884          0.94578         69.2884         0.325643        -176.357
78.255                  0.325179         134.416         0.945741         68.8431         0.945741         68.8431         0.325731        -176.788
78.29                   0.325293         133.961         0.945702         68.3978         0.945702         68.3978         0.325817        -177.218
78.325                  0.325405         133.505         0.945664         67.9525         0.945664         67.9525           0.3259        -177.649
78.36                   0.325513         133.049         0.945626         67.5072         0.945626         67.5072         0.325982         -178.08
78.395                  0.325619         132.593          0.94559         67.0619          0.94559         67.0619         0.326063        -178.511
78.43                   0.325722         132.138         0.945554         66.6166         0.945554         66.6166         0.326141        -178.943
78.465                  0.325823         131.682         0.945519         66.1712         0.945519         66.1712         0.326218        -179.374
78.5                    0.325921         131.226         0.945484         65.7259         0.945484         65.7259         0.326293        -179.806
78.535                  0.326016          130.77          0.94545         65.2806          0.94545         65.2806         0.326367         179.762
78.57                   0.326109         130.314         0.945417         64.8352         0.945417         64.8352         0.326439         179.331
78.605                  0.326199         129.858         0.945385         64.3899         0.945385         64.3899          0.32651         178.899
78.64                   0.326287         129.402         0.945353         63.9445         0.945353         63.9445         0.326578         178.467
78.675                  0.326372         128.946         0.945322         63.4992         0.945322         63.4992         0.326646         178.034
78.71                   0.326455         128.489         0.945292         63.0538         0.945292         63.0538         0.326712         177.602
78.745                  0.326536         128.033         0.945262         62.6084         0.945262         62.6084         0.326776          177.17
78.78                   0.326614         127.576         0.945233          62.163         0.945233          62.163          0.32684         176.738
78.815                   0.32669          127.12         0.945205         61.7176         0.945205         61.7176         0.326901         176.305
78.85                   0.326764         126.663         0.945177         61.2722         0.945177         61.2722         0.326961         175.873
78.885                  0.326836         126.206          0.94515         60.8267          0.94515         60.8267          0.32702          175.44
78.92                   0.326905         125.749         0.945124         60.3813         0.945124         60.3813         0.327078         175.008
78.955                  0.326973         125.292         0.945098         59.9359         0.945098         59.9359         0.327134         174.575
78.99                   0.327039         124.835         0.945073         59.4904         0.945073         59.4904         0.327188         174.143
79.025                  0.327102         124.378         0.945049         59.0449         0.945049         59.0449         0.327242          173.71
79.06                   0.327164         123.921         0.945025         58.5994         0.945025         58.5994         0.327294         173.278
79.095                  0.327224         123.463         0.945002         58.1539         0.945002         58.1539         0.327344         172.845
79.13                   0.327282         123.006          0.94498         57.7084          0.94498         57.7084         0.327394         172.412
79.165                  0.327338         122.548         0.944958         57.2629         0.944958         57.2629         0.327442          171.98
79.2                    0.327392          122.09         0.944937         56.8173         0.944937         56.8173         0.327488         171.547
79.235                  0.327444         121.632         0.944916         56.3717         0.944916         56.3717         0.327533         171.115
79.27                   0.327495         121.174         0.944896         55.9262         0.944896         55.9262         0.327577         170.682
79.305                  0.327544         120.716         0.944877         55.4806         0.944877         55.4806          0.32762         170.249
79.34                   0.327591         120.258         0.944859          55.035         0.944859          55.035         0.327661         169.817
79.375                  0.327637           119.8         0.944841         54.5893         0.944841         54.5893         0.327701         169.384
79.41                   0.327681         119.341         0.944823         54.1437         0.944823         54.1437          0.32774         168.951
79.445                  0.327723         118.883         0.944806          53.698         0.944806          53.698         0.327778         168.519
79.48                   0.327764         118.424          0.94479         53.2523          0.94479         53.2523         0.327814         168.086
79.515                  0.327803         117.965         0.944775         52.8066         0.944775         52.8066         0.327849         167.654
79.55                   0.327841         117.506         0.944759         52.3609         0.944759         52.3609         0.327882         167.221
79.585                  0.327877         117.047         0.944745         51.9152         0.944745         51.9152         0.327915         166.789
79.62                   0.327912         116.588         0.944731         51.4694         0.944731         51.4694         0.327946         166.356
79.655                  0.327945         116.129         0.944718         51.0236         0.944718         51.0236         0.327976         165.924
79.69                   0.327977          115.67         0.944705         50.5778         0.944705         50.5778         0.328005         165.491
79.725                  0.328007         115.211         0.944693          50.132         0.944693          50.132         0.328032         165.059
79.76                   0.328036         114.751         0.944681         49.6862         0.944681         49.6862         0.328058         164.626
79.795                  0.328064         114.292          0.94467         49.2403          0.94467         49.2403         0.328083         164.194
79.83                    0.32809         113.832          0.94466         48.7945          0.94466         48.7945         0.328107         163.761
79.865                  0.328115         113.372          0.94465         48.3486          0.94465         48.3486          0.32813         163.329
79.9                    0.328138         112.913          0.94464         47.9027          0.94464         47.9027         0.328151         162.897
79.935                   0.32816         112.453         0.944631         47.4567         0.944631         47.4567         0.328171         162.464
79.97                   0.328181         111.993         0.944623         47.0108         0.944623         47.0108          0.32819         162.032
80.005                    0.3282         111.533         0.944615         46.5648         0.944615         46.5648         0.328208           161.6
80.04                   0.328218         111.072         0.944607         46.1188         0.944607         46.1188         0.328225         161.168
80.075                  0.328235         110.612           0.9446         45.6728           0.9446         45.6728         0.328241         160.735
80.11                   0.328251         110.152         0.944594         45.2267         0.944594         45.2267         0.328255         160.303
80.145                  0.328265         109.692         0.944588         44.7806         0.944588         44.7806         0.328268         159.871
80.18                   0.328278         109.231         0.944583         44.3346         0.944583         44.3346          0.32828         159.439
80.215                   0.32829          108.77         0.944578         43.8884         0.944578         43.8884         0.328291         159.007
80.25                   0.328301          108.31         0.944573         43.4423         0.944573         43.4423         0.328301         158.575
80.285                   0.32831         107.849         0.944569         42.9962         0.944569         42.9962          0.32831         158.143
80.32                   0.328319         107.388         0.944566           42.55         0.944566           42.55         0.328317         157.711
80.355                  0.328326         106.927         0.944563         42.1038         0.944563         42.1038         0.328323         157.279
80.39                   0.328332         106.466          0.94456         41.6575          0.94456         41.6575         0.328329         156.847
80.425                  0.328336         106.005         0.944558         41.2113         0.944558         41.2113         0.328333         156.415
80.46                    0.32834         105.544         0.944556          40.765         0.944556          40.765         0.328336         155.983
80.495                  0.328343         105.083         0.944555         40.3187         0.944555         40.3187         0.328338         155.551
80.53                   0.328344         104.622         0.944554         39.8724         0.944554         39.8724         0.328339          155.12
80.565                  0.328344          104.16         0.944553         39.4261         0.944553         39.4261         0.328339         154.688
80.6                    0.328343         103.699         0.944553         38.9797         0.944553         38.9797         0.328338         154.256
80.635                  0.328341         103.237         0.944554         38.5333         0.944554         38.5333         0.328336         153.825
80.67                   0.328338         102.776         0.944555         38.0869         0.944555         38.0869         0.328332         153.393
80.705                  0.328334         102.314         0.944556         37.6404         0.944556         37.6404         0.328328         152.961
80.74                   0.328329         101.852         0.944558          37.194         0.944558          37.194         0.328323          152.53
80.775                  0.328323         101.391          0.94456         36.7475          0.94456         36.7475         0.328316         152.098
80.81                   0.328316         100.929         0.944562          36.301         0.944562          36.301         0.328309         151.667
80.845                  0.328307         100.467         0.944565         35.8544         0.944565         35.8544         0.328301         151.235
80.88                   0.328298         100.005         0.944568         35.4079         0.944568         35.4079         0.328291         150.804
80.915                  0.328288         99.5427         0.944572         34.9613         0.944572         34.9613         0.328281         150.372
80.95                   0.328276         99.0805         0.944576         34.5146         0.944576         34.5146          0.32827         149.941
80.985                  0.328264         98.6182          0.94458          34.068          0.94458          34.068         0.328257          149.51
81.02                   0.328251         98.1559         0.944585         33.6213         0.944585         33.6213         0.328244         149.078
81.055                  0.328236         97.6935          0.94459         33.1746          0.94459         33.1746          0.32823         148.647
81.09                   0.328221          97.231         0.944595         32.7279         0.944595         32.7279         0.328214         148.216
81.125                  0.328205         96.7684         0.944601         32.2811         0.944601         32.2811         0.328198         147.785
81.16                   0.328188         96.3058         0.944607         31.8344         0.944607         31.8344         0.328181         147.354
81.195                  0.328169         95.8431         0.944613         31.3875         0.944613         31.3875         0.328163         146.923
81.23                    0.32815         95.3803          0.94462         30.9407          0.94462         30.9407         0.328144         146.491
81.265                   0.32813         94.9174         0.944627         30.4938         0.944627         30.4938         0.328124          146.06
81.3                     0.32811         94.4545         0.944635         30.0469         0.944635         30.0469         0.328103         145.629
81.335                  0.328088         93.9914         0.944643            29.6         0.944643            29.6         0.328081         145.198
81.37                   0.328065         93.5283         0.944651         29.1531         0.944651         29.1531         0.328059         144.767
81.405                  0.328041         93.0651         0.944659         28.7061         0.944659         28.7061         0.328035         144.337
81.44                   0.328017         92.6019         0.944668         28.2591         0.944668         28.2591         0.328011         143.906
81.475                  0.327992         92.1385         0.944677          27.812         0.944677          27.812         0.327986         143.475
81.51                   0.327965         91.6751         0.944686          27.365         0.944686          27.365          0.32796         143.044
81.545                  0.327938         91.2116         0.944696         26.9179         0.944696         26.9179         0.327933         142.613
81.58                   0.327911          90.748         0.944706         26.4707         0.944706         26.4707         0.327905         142.183
81.615                  0.327882         90.2843         0.944716         26.0236         0.944716         26.0236         0.327876         141.752
81.65                   0.327852         89.8205         0.944726         25.5764         0.944726         25.5764         0.327847         141.321
81.685                  0.327822         89.3567         0.944737         25.1291         0.944737         25.1291         0.327817         140.891
81.72                   0.327791         88.8927         0.944748         24.6819         0.944748         24.6819         0.327786          140.46
81.755                  0.327759         88.4287         0.944759         24.2346         0.944759         24.2346         0.327754          140.03
81.79                   0.327727         87.9646         0.944771         23.7872         0.944771         23.7872         0.327722         139.599
81.825                  0.327693         87.5003         0.944783         23.3398         0.944783         23.3398         0.327688         139.169
81.86                   0.327659          87.036         0.944795         22.8924         0.944795         22.8924         0.327654         138.738
81.895                  0.327624         86.5716         0.944807          22.445         0.944807          22.445          0.32762         138.308