! TOUCHSTONE file generated by CST MICROWAVE STUDIO
! Date and time: Fri Feb  2 19:52:43 2024
! Project name: material_prueba.cst
! Header version: 2018
! Port assignment regex: !\s*Touchstone port\s*([0-9]+)\s*=\s*(CST MWS port|CST DS port)\s*([0-9]+|Zmin|Zmax)\s*\(\"(.*)\"\)(\s*mode\s*([0-9]+))?.*
! Touchstone port assignment:
! Touchstone port 1 = CST MWS port 1 ("")
! Touchstone port 2 = CST MWS port 2 ("")
# GHz S MA R 376.7
10                      0.189646         139.232         0.981852        -130.768         0.981852        -130.768         0.189646         139.232
10.02                   0.189967         138.972          0.98179        -131.028          0.98179        -131.028         0.189967         138.972
10.04                   0.190287         138.713         0.981728        -131.287         0.981728        -131.287         0.190287         138.713
10.06                   0.190608         138.453         0.981665        -131.547         0.981665        -131.547         0.190608         138.453
10.08                   0.190928         138.193         0.981603        -131.807         0.981603        -131.807         0.190928         138.193
10.1                    0.191248         137.933          0.98154        -132.066          0.98154        -132.066         0.191248         137.933
10.12                   0.191567         137.674         0.981477        -132.326         0.981478        -132.326         0.191568         137.674
10.14                   0.191887         137.414         0.981415        -132.586         0.981415        -132.586         0.191887         137.414
10.16                   0.192206         137.154         0.981352        -132.845         0.981352        -132.845         0.192206         137.154
10.18                   0.192525         136.895         0.981289        -133.105          0.98129        -133.105         0.192525         136.895
10.2                    0.192843         136.635         0.981226        -133.365         0.981227        -133.365         0.192844         136.635
10.22                   0.193162         136.375         0.981163        -133.624         0.981164        -133.624         0.193162         136.375
10.24                    0.19348         136.115           0.9811        -133.884         0.981101        -133.884          0.19348         136.115
10.26                   0.193798         135.856         0.981037        -134.144         0.981038        -134.144         0.193798         135.856
10.28                   0.194116         135.596         0.980974        -134.403         0.980975        -134.403         0.194116         135.596
10.3                    0.194433         135.336         0.980911        -134.663         0.980912        -134.663         0.194433         135.336
10.32                    0.19475         135.077         0.980848        -134.923         0.980849        -134.923          0.19475         135.077
10.34                   0.195067         134.817         0.980785        -135.182         0.980786        -135.182         0.195067         134.817
10.36                   0.195384         134.557         0.980722        -135.442         0.980723        -135.442         0.195384         134.557
10.38                     0.1957         134.298         0.980659        -135.702         0.980659        -135.702           0.1957         134.298
10.4                    0.196016         134.038         0.980595        -135.961         0.980596        -135.961         0.196016         134.038
10.42                   0.196332         133.778         0.980532        -136.221         0.980533        -136.221         0.196332         133.778
10.44                   0.196648         133.519         0.980469        -136.481         0.980469        -136.481         0.196648         133.519
10.46                   0.196963         133.259         0.980405         -136.74         0.980406         -136.74         0.196963         133.259
10.48                   0.197278         132.999         0.980342            -137         0.980342            -137         0.197278         132.999
10.5                    0.197593          132.74         0.980278         -137.26         0.980279         -137.26         0.197593          132.74
10.52                   0.197907          132.48         0.980215        -137.519         0.980215        -137.519         0.197907          132.48
10.54                   0.198221          132.22         0.980151        -137.779         0.980152        -137.779         0.198222          132.22
10.56                   0.198535         131.961         0.980087        -138.038         0.980088        -138.038         0.198536         131.961
10.58                   0.198849         131.701         0.980024        -138.298         0.980025        -138.298         0.198849         131.701
10.6                    0.199163         131.442          0.97996        -138.558         0.979961        -138.558         0.199163         131.442
10.62                   0.199476         131.182         0.979896        -138.817         0.979897        -138.817         0.199476         131.182
10.64                   0.199789         130.922         0.979832        -139.077         0.979833        -139.077         0.199789         130.922
10.66                   0.200101         130.663         0.979768        -139.336         0.979769        -139.336         0.200101         130.663
10.68                   0.200413         130.403         0.979705        -139.596         0.979705        -139.596         0.200414         130.403
10.7                    0.200725         130.144         0.979641        -139.856         0.979642        -139.856         0.200726         130.144
10.72                   0.201037         129.884         0.979577        -140.115         0.979578        -140.115         0.201037         129.884
10.74                   0.201349         129.625         0.979513        -140.375         0.979514        -140.375         0.201349         129.625
10.76                    0.20166         129.365         0.979449        -140.634          0.97945        -140.634          0.20166         129.365
10.78                   0.201971         129.105         0.979384        -140.894         0.979385        -140.894         0.201971         129.105
10.8                    0.202281         128.846          0.97932        -141.153         0.979321        -141.153         0.202282         128.846
10.82                   0.202592         128.586         0.979256        -141.413         0.979257        -141.413         0.202592         128.586
10.84                   0.202902         128.327         0.979192        -141.672         0.979193        -141.672         0.202902         128.327
10.86                   0.203211         128.067         0.979128        -141.932         0.979129        -141.932         0.203212         128.067
10.88                   0.203521         127.808         0.979063        -142.192         0.979065        -142.192         0.203521         127.808
10.9                     0.20383         127.548         0.978999        -142.451            0.979        -142.451          0.20383         127.548
10.92                   0.204139         127.289         0.978935        -142.711         0.978936        -142.711         0.204139         127.289
10.94                   0.204447         127.029          0.97887         -142.97         0.978872         -142.97         0.204448         127.029
10.96                   0.204756          126.77         0.978806         -143.23         0.978807         -143.23         0.204756          126.77
10.98                   0.205064          126.51         0.978742        -143.489         0.978743        -143.489         0.205064          126.51
11                      0.205371         126.251         0.978677        -143.749         0.978678        -143.749         0.205371         126.251
11.02                   0.205679         125.991         0.978613        -144.008         0.978614        -144.008         0.205679         125.991
11.04                   0.205986         125.732         0.978548        -144.268         0.978549        -144.268         0.205986         125.732
11.06                   0.206292         125.473         0.978484        -144.527         0.978485        -144.527         0.206293         125.472
11.08                   0.206599         125.213         0.978419        -144.786          0.97842        -144.786         0.206599         125.213
11.1                    0.206905         124.954         0.978354        -145.046         0.978355        -145.046         0.206905         124.954
11.12                   0.207211         124.694          0.97829        -145.305         0.978291        -145.305         0.207211         124.694
11.14                   0.207516         124.435         0.978225        -145.565         0.978226        -145.565         0.207517         124.435
11.16                   0.207822         124.175          0.97816        -145.824         0.978161        -145.824         0.207822         124.175
11.18                   0.208127         123.916         0.978095        -146.084         0.978096        -146.084         0.208127         123.916
11.2                    0.208431         123.657         0.978031        -146.343         0.978032        -146.343         0.208431         123.656
11.22                   0.208736         123.397         0.977966        -146.602         0.977967        -146.602         0.208736         123.397
11.24                    0.20904         123.138         0.977901        -146.862         0.977902        -146.862          0.20904         123.138
11.26                   0.209343         122.878         0.977836        -147.121         0.977837        -147.121         0.209343         122.878
11.28                   0.209647         122.619         0.977771        -147.381         0.977772        -147.381         0.209647         122.619
11.3                     0.20995          122.36         0.977706         -147.64         0.977707         -147.64          0.20995          122.36
11.32                   0.210252           122.1         0.977641        -147.899         0.977642        -147.899         0.210253           122.1
11.34                   0.210555         121.841         0.977576        -148.159         0.977577        -148.159         0.210555         121.841
11.36                   0.210857         121.582         0.977511        -148.418         0.977512        -148.418         0.210857         121.581
11.38                   0.211159         121.322         0.977446        -148.678         0.977447        -148.678         0.211159         121.322
11.4                     0.21146         121.063         0.977381        -148.937         0.977382        -148.937          0.21146         121.063
11.42                   0.211761         120.804         0.977316        -149.196         0.977317        -149.196         0.211762         120.803
11.44                   0.212062         120.544         0.977251        -149.456         0.977252        -149.456         0.212062         120.544
11.46                   0.212363         120.285         0.977186        -149.715         0.977187        -149.715         0.212363         120.285
11.48                   0.212663         120.026         0.977121        -149.974         0.977122        -149.974         0.212663         120.026
11.5                    0.212963         119.766         0.977056        -150.234         0.977056        -150.234         0.212963         119.766
11.52                   0.213262         119.507          0.97699        -150.493         0.976991        -150.493         0.213262         119.507
11.54                   0.213562         119.248         0.976925        -150.752         0.976926        -150.752         0.213562         119.248
11.56                    0.21386         118.988          0.97686        -151.011         0.976861        -151.011         0.213861         118.988
11.58                   0.214159         118.729         0.976795        -151.271         0.976795        -151.271         0.214159         118.729
11.6                    0.214457          118.47         0.976729         -151.53          0.97673         -151.53         0.214457          118.47
11.62                   0.214755         118.211         0.976664        -151.789         0.976665        -151.789         0.214755         118.211
11.64                   0.215053         117.951         0.976599        -152.048         0.976599        -152.048         0.215053         117.951
11.66                    0.21535         117.692         0.976533        -152.308         0.976534        -152.308          0.21535         117.692
11.68                   0.215647         117.433         0.976468        -152.567         0.976469        -152.567         0.215647         117.433
11.7                    0.215944         117.174         0.976403        -152.826         0.976403        -152.826         0.215944         117.174
11.72                    0.21624         116.915         0.976337        -153.085         0.976338        -153.085          0.21624         116.915
11.74                   0.216536         116.655         0.976272        -153.345         0.976272        -153.345         0.216536         116.655
11.76                   0.216831         116.396         0.976206        -153.604         0.976207        -153.604         0.216831         116.396
11.78                   0.217127         116.137         0.976141        -153.863         0.976141        -153.863         0.217127         116.137
11.8                    0.217421         115.878         0.976075        -154.122         0.976076        -154.122         0.217422         115.878
11.82                   0.217716         115.619          0.97601        -154.381          0.97601        -154.381         0.217716         115.619
11.84                    0.21801          115.36         0.975944         -154.64         0.975945         -154.64          0.21801         115.359
11.86                   0.218304           115.1         0.975879          -154.9         0.975879          -154.9         0.218304           115.1
11.88                   0.218598         114.841         0.975813        -155.159         0.975814        -155.159         0.218598         114.841
11.9                    0.218891         114.582         0.975748        -155.418         0.975748        -155.418         0.218891         114.582
11.92                   0.219184         114.323         0.975682        -155.677         0.975682        -155.677         0.219184         114.323
11.94                   0.219477         114.064         0.975616        -155.936         0.975617        -155.936         0.219477         114.064
11.96                   0.219769         113.805         0.975551        -156.195         0.975551        -156.195         0.219769         113.805
11.98                   0.220061         113.546         0.975485        -156.454         0.975486        -156.454         0.220061         113.546
12                      0.220352         113.287         0.975419        -156.713          0.97542        -156.713         0.220352         113.287
12.02                   0.220643         113.027         0.975354        -156.973         0.975354        -156.973         0.220643         113.027
12.04                   0.220934         112.768         0.975288        -157.232         0.975288        -157.232         0.220934         112.768
12.06                   0.221225         112.509         0.975222        -157.491         0.975223        -157.491         0.221225         112.509
12.08                   0.221515          112.25         0.975157         -157.75         0.975157         -157.75         0.221515          112.25
12.1                    0.221805         111.991         0.975091        -158.009         0.975091        -158.009         0.221805         111.991
12.12                   0.222094         111.732         0.975025        -158.268         0.975026        -158.268         0.222094         111.732
12.14                   0.222383         111.473          0.97496        -158.527          0.97496        -158.527         0.222383         111.473
12.16                   0.222672         111.214         0.974894        -158.786         0.974894        -158.786         0.222672         111.214
12.18                   0.222961         110.955         0.974828        -159.045         0.974828        -159.045         0.222961         110.955
12.2                    0.223249         110.696         0.974762        -159.304         0.974762        -159.304         0.223249         110.696
12.22                   0.223536         110.437         0.974696        -159.563         0.974697        -159.563         0.223536         110.437
12.24                   0.223824         110.178         0.974631        -159.822         0.974631        -159.822         0.223824         110.178
12.26                   0.224111         109.919         0.974565        -160.081         0.974565        -160.081         0.224111         109.919
12.28                   0.224398          109.66         0.974499         -160.34         0.974499         -160.34         0.224398          109.66
12.3                    0.224684         109.401         0.974433        -160.599         0.974433        -160.599         0.224684         109.401
12.32                    0.22497         109.142         0.974367        -160.858         0.974367        -160.858          0.22497         109.142
12.34                   0.225256         108.883         0.974302        -161.117         0.974302        -161.117         0.225256         108.883
12.36                   0.225541         108.624         0.974236        -161.376         0.974236        -161.376         0.225541         108.624
12.38                   0.225826         108.366          0.97417        -161.634          0.97417        -161.634         0.225826         108.366
12.4                    0.226111         108.107         0.974104        -161.893         0.974104        -161.893          0.22611         108.107
12.42                   0.226395         107.848         0.974038        -162.152         0.974038        -162.152         0.226395         107.848
12.44                   0.226679         107.589         0.973972        -162.411         0.973972        -162.411         0.226679         107.589
12.46                   0.226962          107.33         0.973906         -162.67         0.973906         -162.67         0.226962          107.33
12.48                   0.227245         107.071         0.973841        -162.929          0.97384        -162.929         0.227245         107.071
12.5                    0.227528         106.812         0.973775        -163.188         0.973774        -163.188         0.227528         106.812
12.52                   0.227811         106.553         0.973709        -163.447         0.973709        -163.447         0.227811         106.553
12.54                   0.228093         106.295         0.973643        -163.705         0.973643        -163.705         0.228093         106.295
12.56                   0.228375         106.036         0.973577        -163.964         0.973577        -163.964         0.228374         106.036
12.58                   0.228656         105.777         0.973511        -164.223         0.973511        -164.223         0.228656         105.777
12.6                    0.228937         105.518         0.973445        -164.482         0.973445        -164.482         0.228937         105.518
12.62                   0.229218         105.259         0.973379        -164.741         0.973379        -164.741         0.229218         105.259
12.64                   0.229498             105         0.973313        -164.999         0.973313        -164.999         0.229498             105
12.66                   0.229778         104.742         0.973247        -165.258         0.973247        -165.258         0.229778         104.742
12.68                   0.230058         104.483         0.973181        -165.517         0.973181        -165.517         0.230058         104.483
12.7                    0.230337         104.224         0.973116        -165.776         0.973115        -165.776         0.230337         104.224
12.72                   0.230616         103.965          0.97305        -166.035         0.973049        -166.035         0.230616         103.965
12.74                   0.230894         103.707         0.972984        -166.293         0.972983        -166.293         0.230894         103.707
12.76                   0.231172         103.448         0.972918        -166.552         0.972917        -166.552         0.231172         103.448
12.78                    0.23145         103.189         0.972852        -166.811         0.972851        -166.811          0.23145         103.189
12.8                    0.231728          102.93         0.972786        -167.069         0.972785        -167.069         0.231728          102.93
12.82                   0.232005         102.672          0.97272        -167.328         0.972719        -167.328         0.232005         102.672
12.84                   0.232282         102.413         0.972654        -167.587         0.972654        -167.587         0.232281         102.413
12.86                   0.232558         102.154         0.972588        -167.845         0.972588        -167.845         0.232558         102.154
12.88                   0.232834         101.896         0.972522        -168.104         0.972522        -168.104         0.232834         101.896
12.9                     0.23311         101.637         0.972456        -168.363         0.972456        -168.363          0.23311         101.637
12.92                   0.233385         101.378          0.97239        -168.621          0.97239        -168.621         0.233385         101.378
12.94                    0.23366          101.12         0.972324         -168.88         0.972324         -168.88          0.23366          101.12
12.96                   0.233934         100.861         0.972259        -169.139         0.972258        -169.139         0.233934         100.861
12.98                   0.234209         100.602         0.972193        -169.397         0.972192        -169.397         0.234209         100.602
13                      0.234482         100.344         0.972127        -169.656         0.972126        -169.656         0.234482         100.344
13.02                   0.234756         100.085         0.972061        -169.915          0.97206        -169.915         0.234756         100.085
13.04                   0.235029         99.8266         0.971995        -170.173         0.971994        -170.173         0.235029         99.8266
13.06                   0.235302          99.568         0.971929        -170.432         0.971928        -170.432         0.235302          99.568
13.08                   0.235574         99.3094         0.971863         -170.69         0.971862         -170.69         0.235574         99.3094
13.1                    0.235846         99.0509         0.971797        -170.949         0.971797        -170.949         0.235846         99.0509
13.12                   0.236118         98.7923         0.971731        -171.207         0.971731        -171.207         0.236118         98.7923
13.14                   0.236389         98.5338         0.971666        -171.466         0.971665        -171.466         0.236389         98.5338
13.16                    0.23666         98.2752           0.9716        -171.724         0.971599        -171.724          0.23666         98.2752
13.18                   0.236931         98.0167         0.971534        -171.983         0.971533        -171.983          0.23693         98.0167
13.2                    0.237201         97.7582         0.971468        -172.242         0.971467        -172.242         0.237201         97.7582
13.22                   0.237471         97.4997         0.971402          -172.5         0.971401          -172.5          0.23747         97.4997
13.24                    0.23774         97.2412         0.971336        -172.759         0.971335        -172.758          0.23774         97.2412
13.26                   0.238009         96.9827         0.971271        -173.017          0.97127        -173.017         0.238009         96.9827
13.28                   0.238278         96.7242         0.971205        -173.275         0.971204        -173.275         0.238278         96.7242
13.3                    0.238546         96.4657         0.971139        -173.534         0.971138        -173.534         0.238546         96.4657
13.32                   0.238814         96.2073         0.971073        -173.792         0.971072        -173.792         0.238814         96.2073
13.34                   0.239082         95.9488         0.971007        -174.051         0.971006        -174.051         0.239082         95.9488
13.36                   0.239349         95.6904         0.970942        -174.309         0.970941        -174.309         0.239349         95.6904
13.38                   0.239616         95.4319         0.970876        -174.568         0.970875        -174.568         0.239616         95.4319
13.4                    0.239882         95.1735          0.97081        -174.826         0.970809        -174.826         0.239882         95.1735
13.42                   0.240149         94.9151         0.970744        -175.084         0.970743        -175.084         0.240148         94.9151
13.44                   0.240414         94.6567         0.970679        -175.343         0.970677        -175.343         0.240414         94.6567
13.46                    0.24068         94.3983         0.970613        -175.601         0.970612        -175.601          0.24068         94.3983
13.48                   0.240945         94.1399         0.970547         -175.86         0.970546         -175.86         0.240945         94.1399
13.5                    0.241209         93.8816         0.970481        -176.118          0.97048        -176.118         0.241209         93.8816
13.52                   0.241474         93.6232         0.970416        -176.376         0.970415        -176.376         0.241474         93.6232
13.54                   0.241738         93.3649          0.97035        -176.635         0.970349        -176.635         0.241738         93.3649
13.56                   0.242001         93.1065         0.970284        -176.893         0.970283        -176.893         0.242001         93.1065
13.58                   0.242264         92.8482         0.970219        -177.151         0.970218        -177.151         0.242264         92.8482
13.6                    0.242527         92.5899         0.970153         -177.41         0.970152         -177.41         0.242527         92.5899
13.62                    0.24279         92.3316         0.970087        -177.668         0.970086        -177.668          0.24279         92.3316
13.64                   0.243052         92.0733         0.970022        -177.926         0.970021        -177.926         0.243052         92.0733
13.66                   0.243313          91.815         0.969956        -178.184         0.969955        -178.184         0.243313          91.815
13.68                   0.243575         91.5567         0.969891        -178.443          0.96989        -178.443         0.243575         91.5567
13.7                    0.243836         91.2984         0.969825        -178.701         0.969824        -178.701         0.243836         91.2984
13.72                   0.244096         91.0402          0.96976        -178.959         0.969758        -178.959         0.244096         91.0402
13.74                   0.244357         90.7819         0.969694        -179.218         0.969693        -179.217         0.244356         90.7819
13.76                   0.244616         90.5237         0.969629        -179.476         0.969627        -179.476         0.244616         90.5237
13.78                   0.244876         90.2654         0.969563        -179.734         0.969562        -179.734         0.244876         90.2655
13.8                    0.245135         90.0072         0.969498        -179.992         0.969496        -179.992         0.245135         90.0072
13.82                   0.245394          89.749         0.969432          179.75         0.969431          179.75         0.245394          89.749
13.84                   0.245652         89.4908         0.969367         179.491         0.969365         179.491         0.245652         89.4908
13.86                    0.24591         89.2326         0.969301         179.233           0.9693         179.233          0.24591         89.2327
13.88                   0.246168         88.9745         0.969236         178.975         0.969235         178.975         0.246168         88.9745
13.9                    0.246425         88.7163         0.969171         178.717         0.969169         178.717         0.246425         88.7163
13.92                   0.246682         88.4581         0.969105         178.459         0.969104         178.459         0.246682         88.4581
13.94                   0.246938            88.2          0.96904         178.201         0.969039         178.201         0.246938            88.2