! TOUCHSTONE file generated by CST MICROWAVE STUDIO
! Date and time: Fri Feb 16 12:03:50 2024
! Project name: material_rotado.cst
! Parameters = {angX=1.25; angY=0.75}
! Header version: 2018
! Port assignment regex: !\s*Touchstone port\s*([0-9]+)\s*=\s*(CST MWS port|CST DS port)\s*([0-9]+|Zmin|Zmax)\s*\(\"(.*)\"\)(\s*mode\s*([0-9]+))?.*
! Touchstone port assignment:
! Touchstone port 1 = CST MWS port 1 ("")
! Touchstone port 2 = CST MWS port 2 ("")
# GHz S MA R 376.7
75                       0.29384        -155.959         0.955855         114.029         0.955855         114.029          0.29384        -155.983
75.035                  0.293912        -156.055         0.955821          113.93         0.955821          113.93         0.293911        -156.079
75.07                   0.293985        -156.151         0.955789          113.83         0.955789          113.83         0.293984        -156.176
75.105                   0.29406        -156.249         0.955757         113.729         0.955757         113.729         0.294058        -156.274
75.14                   0.294137        -156.346         0.955726         113.628         0.955726         113.628         0.294135        -156.372
75.175                  0.294215        -156.445         0.955695         113.527         0.955695         113.527         0.294213        -156.471
75.21                   0.294295        -156.544         0.955665         113.425         0.955665         113.425         0.294293         -156.57
75.245                  0.294378        -156.644         0.955634         113.323         0.955634         113.323         0.294375         -156.67
75.28                   0.294462        -156.744         0.955605         113.221         0.955605         113.221          0.29446        -156.771
75.315                  0.294548        -156.845         0.955575         113.118         0.955575         113.118         0.294546        -156.872
75.35                   0.294636        -156.947         0.955545         113.015         0.955545         113.015         0.294635        -156.973
75.385                  0.294727        -157.049         0.955515         112.911         0.955515         112.911         0.294726        -157.076
75.42                    0.29482        -157.152         0.955485         112.807         0.955485         112.807         0.294819        -157.178
75.455                  0.294916        -157.256         0.955455         112.703         0.955455         112.703         0.294915        -157.282
75.49                   0.295014         -157.36         0.955425         112.598         0.955425         112.598         0.295014        -157.385
75.525                  0.295115        -157.464         0.955394         112.493         0.955394         112.493         0.295115         -157.49
75.56                   0.295218         -157.57         0.955363         112.388         0.955363         112.388         0.295219        -157.595
75.595                  0.295324        -157.675         0.955332         112.282         0.955332         112.282         0.295325          -157.7
75.63                   0.295433        -157.782           0.9553         112.176           0.9553         112.176         0.295435        -157.806
75.665                  0.295544        -157.889         0.955267          112.07         0.955267          112.07         0.295547        -157.912
75.7                    0.295659        -157.996         0.955234         111.963         0.955234         111.963         0.295662        -158.019
75.735                  0.295777        -158.104           0.9552         111.856           0.9552         111.856          0.29578        -158.126
75.77                   0.295897        -158.213         0.955165         111.749         0.955165         111.749         0.295901        -158.234
75.805                  0.296021        -158.322          0.95513         111.641          0.95513         111.641         0.296025        -158.342
75.84                   0.296148        -158.431         0.955094         111.533         0.955094         111.533         0.296153        -158.451
75.875                  0.296279        -158.541         0.955057         111.425         0.955057         111.425         0.296283         -158.56
75.91                   0.296412        -158.651         0.955019         111.316         0.955019         111.316         0.296417        -158.669
75.945                  0.296549        -158.762          0.95498         111.208          0.95498         111.208         0.296554        -158.779
75.98                   0.296689        -158.873         0.954939         111.098         0.954939         111.098         0.296694         -158.89
76.015                  0.296833        -158.985         0.954898         110.989         0.954898         110.989         0.296838            -159
76.05                    0.29698        -159.097         0.954856         110.879         0.954856         110.879         0.296985        -159.111
76.085                  0.297131        -159.209         0.954813         110.769         0.954813         110.769         0.297135        -159.223
76.12                   0.297285        -159.322         0.954768         110.659         0.954768         110.659         0.297289        -159.334
76.155                  0.297443        -159.435         0.954723         110.549         0.954723         110.549         0.297447        -159.446
76.19                   0.297605        -159.548         0.954676         110.438         0.954676         110.438         0.297608        -159.559
76.225                   0.29777        -159.662         0.954628         110.327         0.954628         110.327         0.297772        -159.671
76.26                   0.297938        -159.775         0.954579         110.216         0.954579         110.216          0.29794        -159.784
76.295                  0.298111         -159.89         0.954528         110.104         0.954528         110.104         0.298111        -159.897
76.33                   0.298287        -160.004         0.954476         109.993         0.954476         109.993         0.298287        -160.011
76.365                  0.298466        -160.119         0.954423         109.881         0.954423         109.881         0.298465        -160.125
76.4                    0.298649        -160.233         0.954369         109.769         0.954369         109.769         0.298647        -160.238
76.435                  0.298836        -160.348         0.954313         109.656         0.954313         109.656         0.298833        -160.352
76.47                   0.299026        -160.464         0.954256         109.544         0.954256         109.544         0.299022        -160.467
76.505                   0.29922        -160.579         0.954198         109.431         0.954198         109.431         0.299215        -160.581
76.54                   0.299418        -160.694         0.954138         109.318         0.954138         109.318         0.299411        -160.696
76.575                  0.299619         -160.81         0.954077         109.205         0.954077         109.205         0.299611         -160.81
76.61                   0.299823        -160.926         0.954015         109.092         0.954015         109.092         0.299815        -160.925
76.645                  0.300031        -161.041         0.953952         108.978         0.953952         108.978         0.300021         -161.04
76.68                   0.300243        -161.157         0.953887         108.865         0.953887         108.865         0.300232        -161.155
76.715                  0.300458        -161.273         0.953821         108.751         0.953821         108.751         0.300445         -161.27
76.75                   0.300676        -161.389         0.953753         108.637         0.953753         108.637         0.300662        -161.386
76.785                  0.300898        -161.505         0.953685         108.523         0.953685         108.523         0.300883        -161.501
76.82                   0.301122        -161.621         0.953615         108.409         0.953615         108.409         0.301106        -161.616
76.855                   0.30135        -161.737         0.953544         108.295         0.953544         108.295         0.301333        -161.731
76.89                   0.301582        -161.853         0.953471          108.18         0.953471          108.18         0.301563        -161.847
76.925                  0.301816        -161.969         0.953398         108.066         0.953398         108.066         0.301797        -161.962
76.96                   0.302053        -162.085         0.953323         107.951         0.953323         107.951         0.302033        -162.078
76.995                  0.302293          -162.2         0.953247         107.836         0.953247         107.836         0.302272        -162.193
77.03                   0.302536        -162.316          0.95317         107.722          0.95317         107.722         0.302514        -162.308
77.065                  0.302782        -162.432         0.953092         107.607         0.953092         107.607         0.302759        -162.424
77.1                    0.303031        -162.547         0.953013         107.492         0.953013         107.492         0.303007        -162.539
77.135                  0.303282        -162.663         0.952933         107.376         0.952933         107.376         0.303258        -162.654
77.17                   0.303536        -162.778         0.952851         107.261         0.952851         107.261         0.303512        -162.769
77.205                  0.303792        -162.893         0.952769         107.146         0.952769         107.146         0.303768        -162.884
77.24                   0.304051        -163.008         0.952686          107.03         0.952686          107.03         0.304026        -162.999
77.275                  0.304312        -163.123         0.952602         106.915         0.952602         106.915         0.304287        -163.114
77.31                   0.304575        -163.238         0.952516         106.799         0.952516         106.799          0.30455        -163.229
77.345                   0.30484        -163.353          0.95243         106.684          0.95243         106.684         0.304816        -163.344
77.38                   0.305107        -163.468         0.952344         106.568         0.952344         106.568         0.305084        -163.459
77.415                  0.305377        -163.582         0.952256         106.453         0.952256         106.453         0.305353        -163.573
77.45                   0.305648        -163.696         0.952167         106.337         0.952167         106.337         0.305625        -163.688
77.485                  0.305921        -163.811         0.952078         106.221         0.952078         106.221         0.305899        -163.802
77.52                   0.306195        -163.925         0.951988         106.105         0.951988         106.105         0.306175        -163.916
77.555                  0.306471        -164.038         0.951898         105.989         0.951898         105.989         0.306452         -164.03
77.59                   0.306749        -164.152         0.951807         105.874         0.951807         105.874         0.306731        -164.144
77.625                  0.307027        -164.266         0.951715         105.758         0.951715         105.758         0.307011        -164.258
77.66                   0.307308        -164.379         0.951623         105.642         0.951623         105.642         0.307293        -164.372
77.695                  0.307589        -164.492          0.95153         105.526          0.95153         105.526         0.307577        -164.486
77.73                   0.307871        -164.605         0.951436          105.41         0.951436          105.41         0.307861        -164.599
77.765                  0.308155        -164.718         0.951343         105.294         0.951343         105.294         0.308147        -164.712
77.8                    0.308439        -164.831         0.951248         105.178         0.951248         105.178         0.308433        -164.826
77.835                  0.308724        -164.944         0.951154         105.062         0.951154         105.062         0.308721        -164.939
77.87                   0.309009        -165.056         0.951059         104.946         0.951059         104.946         0.309009        -165.052
77.905                  0.309296        -165.168         0.950964          104.83         0.950964          104.83         0.309299        -165.165
77.94                   0.309582        -165.281         0.950868         104.714         0.950868         104.714         0.309588        -165.278
77.975                  0.309869        -165.393         0.950773         104.598         0.950773         104.598         0.309879         -165.39
78.01                   0.310157        -165.505         0.950677         104.482         0.950677         104.482          0.31017        -165.503
78.045                  0.310444        -165.616         0.950581         104.366         0.950581         104.366         0.310461        -165.615
78.08                   0.310732        -165.728         0.950485          104.25         0.950485          104.25         0.310752        -165.728
78.115                   0.31102         -165.84         0.950388         104.135         0.950388         104.135         0.311043         -165.84
78.15                   0.311307        -165.951         0.950292         104.019         0.950292         104.019         0.311335        -165.952
78.185                  0.311595        -166.063         0.950196         103.903         0.950196         103.903         0.311626        -166.064
78.22                   0.311882        -166.174           0.9501         103.787           0.9501         103.787         0.311918        -166.176
78.255                  0.312169        -166.285         0.950004         103.671         0.950004         103.671         0.312209        -166.288
78.29                   0.312455        -166.396         0.949908         103.556         0.949908         103.556         0.312499          -166.4
78.325                  0.312741        -166.507         0.949812          103.44         0.949812          103.44          0.31279        -166.512
78.36                   0.313027        -166.618         0.949716         103.324         0.949716         103.324         0.313079        -166.624
78.395                  0.313311        -166.729          0.94962         103.209          0.94962         103.209         0.313368        -166.735
78.43                   0.313595         -166.84         0.949525         103.093         0.949525         103.093         0.313657        -166.847
78.465                  0.313878        -166.951          0.94943         102.978          0.94943         102.978         0.313944        -166.959
78.5                     0.31416        -167.061         0.949335         102.862         0.949335         102.862         0.314231         -167.07
78.535                  0.314441        -167.172         0.949241         102.747         0.949241         102.747         0.314516        -167.182
78.57                   0.314721        -167.283         0.949147         102.631         0.949147         102.631           0.3148        -167.293
78.605                     0.315        -167.393         0.949053         102.516         0.949053         102.516         0.315084        -167.405
78.64                   0.315277        -167.504          0.94896         102.401          0.94896         102.401         0.315366        -167.516
78.675                  0.315553        -167.615         0.948868         102.286         0.948868         102.286         0.315646        -167.628
78.71                   0.315828        -167.725         0.948775         102.171         0.948775         102.171         0.315925        -167.739
78.745                  0.316101        -167.836         0.948684         102.056         0.948684         102.056         0.316203        -167.851
78.78                   0.316373        -167.947         0.948592         101.941         0.948592         101.941         0.316479        -167.962
78.815                  0.316643        -168.057         0.948502         101.826         0.948502         101.826         0.316753        -168.073
78.85                   0.316911        -168.168         0.948412         101.711         0.948412         101.711         0.317025        -168.185
78.885                  0.317177        -168.279         0.948322         101.596         0.948322         101.596         0.317296        -168.296
78.92                   0.317442         -168.39         0.948234         101.481         0.948234         101.481         0.317564        -168.408
78.955                  0.317705          -168.5         0.948146         101.366         0.948146         101.366         0.317831        -168.519
78.99                   0.317966        -168.611         0.948058         101.252         0.948058         101.252         0.318095        -168.631
79.025                  0.318224        -168.722         0.947972         101.137         0.947972         101.137         0.318358        -168.743
79.06                   0.318481        -168.833         0.947886         101.023         0.947886         101.023         0.318618        -168.854
79.095                  0.318736        -168.944         0.947801         100.909         0.947801         100.909         0.318876        -168.966
79.13                   0.318988        -169.055         0.947716         100.794         0.947716         100.794         0.319131        -169.078
79.165                  0.319238        -169.167         0.947633          100.68         0.947633          100.68         0.319384         -169.19
79.2                    0.319485        -169.278          0.94755         100.566          0.94755         100.566         0.319634        -169.302
79.235                  0.319731        -169.389         0.947468         100.452         0.947468         100.452         0.319882        -169.414
79.27                   0.319973        -169.501         0.947387         100.338         0.947387         100.338         0.320127        -169.526
79.305                  0.320213        -169.613         0.947307         100.224         0.947307         100.224         0.320369        -169.638
79.34                   0.320451        -169.724         0.947228          100.11         0.947228          100.11         0.320609         -169.75
79.375                  0.320686        -169.836         0.947149         99.9962         0.947149         99.9962         0.320846        -169.862
79.41                   0.320918        -169.948         0.947072         99.8825         0.947072         99.8825          0.32108        -169.974
79.445                  0.321148         -170.06         0.946996         99.7689         0.946996         99.7689          0.32131        -170.087
79.48                   0.321375        -170.172          0.94692         99.6554          0.94692         99.6554         0.321538        -170.199
79.515                  0.321598        -170.284         0.946846         99.5419         0.946846         99.5419         0.321763        -170.312
79.55                   0.321819        -170.397         0.946772         99.4286         0.946772         99.4286         0.321985        -170.425
79.585                  0.322037        -170.509           0.9467         99.3153           0.9467         99.3153         0.322203        -170.537
79.62                   0.322252        -170.622         0.946628         99.2021         0.946628         99.2021         0.322419         -170.65
79.655                  0.322464        -170.734         0.946558          99.089         0.946558          99.089         0.322631        -170.763
79.69                   0.322673        -170.847         0.946489          98.976         0.946489          98.976          0.32284        -170.876
79.725                  0.322879         -170.96          0.94642          98.863          0.94642          98.863         0.323045        -170.989
79.76                   0.323081        -171.073         0.946353         98.7502         0.946353         98.7502         0.323247        -171.102
79.795                  0.323281        -171.186         0.946287         98.6374         0.946287         98.6374         0.323446        -171.215
79.83                   0.323477          -171.3         0.946222         98.5247         0.946222         98.5247         0.323641        -171.329
79.865                   0.32367        -171.413         0.946158         98.4121         0.946158         98.4121         0.323832        -171.442
79.9                    0.323859        -171.526         0.946095         98.2996         0.946095         98.2996          0.32402        -171.555
79.935                  0.324045         -171.64         0.946033         98.1872         0.946033         98.1872         0.324205        -171.669
79.97                   0.324228        -171.754         0.945973         98.0749         0.945973         98.0749         0.324386        -171.782
80.005                  0.324407        -171.868         0.945913         97.9626         0.945913         97.9626         0.324563        -171.896
80.04                   0.324583        -171.982         0.945855         97.8504         0.945855         97.8504         0.324736         -172.01
80.075                  0.324755        -172.096         0.945797         97.7384         0.945797         97.7384         0.324906        -172.124
80.11                   0.324924         -172.21         0.945741         97.6264         0.945741         97.6264         0.325072        -172.237
80.145                  0.325089        -172.324         0.945686         97.5145         0.945686         97.5145         0.325235        -172.351
80.18                   0.325251        -172.439         0.945633         97.4027         0.945633         97.4027         0.325393        -172.465
80.215                  0.325409        -172.553          0.94558         97.2909          0.94558         97.2909         0.325548        -172.579
80.25                   0.325563        -172.668         0.945529         97.1793         0.945529         97.1793         0.325699        -172.693
80.285                  0.325714        -172.783         0.945478         97.0678         0.945478         97.0678         0.325846        -172.807
80.32                   0.325861        -172.897         0.945429         96.9563         0.945429         96.9563          0.32599        -172.922
80.355                  0.326004        -173.012         0.945381         96.8449         0.945381         96.8449          0.32613        -173.036
80.39                   0.326144        -173.127         0.945334         96.7336         0.945334         96.7336         0.326265         -173.15
80.425                  0.326279        -173.242         0.945289         96.6224         0.945289         96.6224         0.326397        -173.264
80.46                   0.326412        -173.357         0.945244         96.5113         0.945244         96.5113         0.326525        -173.378
80.495                   0.32654        -173.472         0.945201         96.4003         0.945201         96.4003         0.326649        -173.493
80.53                   0.326664        -173.588         0.945159         96.2893         0.945159         96.2893          0.32677        -173.607
80.565                  0.326785        -173.703         0.945118         96.1785         0.945118         96.1785         0.326886        -173.721
80.6                    0.326902        -173.818         0.945078         96.0677         0.945078         96.0677         0.326999        -173.836
80.635                  0.327015        -173.933          0.94504          95.957          0.94504          95.957         0.327107         -173.95
80.67                   0.327125        -174.049         0.945002         95.8464         0.945002         95.8464         0.327212        -174.064
80.705                   0.32723        -174.164         0.944966         95.7359         0.944966         95.7359         0.327313        -174.179
80.74                   0.327332         -174.28         0.944931         95.6255         0.944931         95.6255         0.327411        -174.293
80.775                   0.32743        -174.395         0.944897         95.5151         0.944897         95.5151         0.327504        -174.407
80.81                   0.327524        -174.511         0.944864         95.4048         0.944864         95.4048         0.327593        -174.521
80.845                  0.327615        -174.626         0.944833         95.2947         0.944833         95.2947         0.327679        -174.635
80.88                   0.327701        -174.742         0.944802         95.1846         0.944802         95.1846         0.327761         -174.75
80.915                  0.327784        -174.857         0.944773         95.0746         0.944773         95.0746         0.327839        -174.864
80.95                   0.327863        -174.973         0.944745         94.9646         0.944745         94.9646         0.327914        -174.978
80.985                  0.327938        -175.088         0.944718         94.8548         0.944718         94.8548         0.327984        -175.092
81.02                    0.32801        -175.203         0.944692          94.745         0.944692          94.745         0.328051        -175.206
81.055                  0.328078        -175.319         0.944668         94.6353         0.944668         94.6353         0.328115         -175.32
81.09                   0.328142        -175.434         0.944644         94.5257         0.944644         94.5257         0.328174        -175.433
81.125                  0.328202         -175.55         0.944622         94.4162         0.944622         94.4162          0.32823        -175.547
81.16                   0.328258        -175.665         0.944601         94.3068         0.944601         94.3068         0.328282        -175.661
81.195                  0.328311         -175.78          0.94458         94.1974          0.94458         94.1974         0.328331        -175.775
81.23                   0.328361        -175.895         0.944561         94.0881         0.944561         94.0881         0.328376        -175.888
81.265                  0.328406         -176.01         0.944544         93.9789         0.944544         93.9789         0.328418        -176.002
81.3                    0.328448        -176.125         0.944527         93.8698         0.944527         93.8698         0.328456        -176.115
81.335                  0.328487         -176.24         0.944511         93.7608         0.944511         93.7608          0.32849        -176.228
81.37                   0.328522        -176.355         0.944496         93.6518         0.944496         93.6518         0.328522        -176.341
81.405                  0.328553         -176.47         0.944483         93.5429         0.944483         93.5429         0.328549        -176.454
81.44                   0.328581        -176.585         0.944471         93.4341         0.944471         93.4341         0.328574        -176.567
81.475                  0.328605        -176.699         0.944459         93.3254         0.944459         93.3254         0.328595         -176.68
81.51                   0.328626        -176.814         0.944449         93.2168         0.944449         93.2168         0.328612        -176.793
81.545                  0.328643        -176.928          0.94444         93.1082          0.94444         93.1082         0.328627        -176.905
81.58                   0.328657        -177.042         0.944432         92.9997         0.944432         92.9997         0.328638        -177.018
81.615                  0.328668        -177.156         0.944424         92.8912         0.944424         92.8912         0.328646         -177.13
81.65                   0.328676         -177.27         0.944418         92.7829         0.944418         92.7829         0.328651        -177.242
81.685                   0.32868        -177.384         0.944413         92.6746         0.944413         92.6746         0.328652        -177.354
81.72                   0.328681        -177.498         0.944409         92.5664         0.944409         92.5664         0.328651        -177.466
81.755                  0.328678        -177.611         0.944406         92.4583         0.944406         92.4583         0.328646        -177.578
81.79                   0.328673        -177.725         0.944404         92.3502         0.944404         92.3502         0.328639        -177.689
81.825                  0.328664        -177.838         0.944403         92.2422         0.944403         92.2422         0.328628        -177.801
81.86                   0.328653        -177.951         0.944403         92.1343         0.944403         92.1343         0.328615        -177.912
81.895                  0.328638        -178.064         0.944404         92.0264         0.944404         92.0264         0.328599        -178.023