! TOUCHSTONE file generated by CST MICROWAVE STUDIO
! Date and time: Wed Feb 14 17:05:44 2024
! Project name: material_rotado.cst
! Parameters = {angY=1.25}
! Header version: 2018
! Port assignment regex: !\s*Touchstone port\s*([0-9]+)\s*=\s*(CST MWS port|CST DS port)\s*([0-9]+|Zmin|Zmax)\s*\(\"(.*)\"\)(\s*mode\s*([0-9]+))?.*
! Touchstone port assignment:
! Touchstone port 1 = CST MWS port 1 ("")
! Touchstone port 2 = CST MWS port 2 ("")
# GHz S MA R 376.7
75                      0.310604        -179.154         0.950531         110.288           0.9505         110.289         0.310551        -140.272
75.035                  0.310716        -179.579         0.950499         109.861         0.950468         109.861         0.310683        -140.704
75.07                   0.310828         179.995         0.950467         109.433         0.950436         109.434         0.310815        -141.136
75.105                  0.310942         179.568         0.950434         109.005         0.950403         109.006         0.310948        -141.568
75.14                   0.311056         179.141           0.9504         108.577          0.95037         108.577         0.311081            -142
75.175                  0.311172         178.714         0.950366         108.148         0.950337         108.148         0.311215        -142.432
75.21                   0.311288         178.285         0.950332         107.719         0.950303         107.719         0.311349        -142.865
75.245                  0.311404         177.857         0.950297         107.289         0.950269         107.289         0.311484        -143.298
75.28                   0.311522         177.427         0.950262         106.859         0.950234         106.859          0.31162        -143.731
75.315                  0.311641         176.997         0.950226         106.428         0.950198         106.429         0.311756        -144.164
75.35                    0.31176         176.567          0.95019         105.998         0.950163         105.998         0.311892        -144.597
75.385                   0.31188         176.135         0.950154         105.566         0.950127         105.567         0.312029         -145.03
75.42                      0.312         175.704         0.950117         105.135          0.95009         105.136         0.312167        -145.464
75.455                  0.312122         175.271         0.950079         104.703         0.950053         104.704         0.312304        -145.898
75.49                   0.312244         174.839         0.950041         104.271         0.950016         104.271         0.312443        -146.331
75.525                  0.312367         174.405         0.950003         103.838         0.949978         103.839         0.312582        -146.765
75.56                   0.312491         173.971         0.949965         103.405          0.94994         103.406         0.312721        -147.199
75.595                  0.312615         173.537         0.949926         102.971         0.949901         102.972         0.312861        -147.634
75.63                    0.31274         173.102         0.949886         102.538         0.949862         102.539         0.313001        -148.068
75.665                  0.312866         172.666         0.949846         102.104         0.949823         102.104         0.313141        -148.502
75.7                    0.312993          172.23         0.949806         101.669         0.949783          101.67         0.313282        -148.937
75.735                   0.31312         171.794         0.949766         101.234         0.949743         101.235         0.313424        -149.372
75.77                   0.313248         171.356         0.949725         100.799         0.949702           100.8         0.313565        -149.806
75.805                  0.313377         170.919         0.949684         100.364         0.949661         100.365         0.313707        -150.241
75.84                   0.313506         170.481         0.949642         99.9278          0.94962         99.9288          0.31385        -150.676
75.875                  0.313636         170.042           0.9496         99.4916         0.949578         99.4927         0.313993        -151.111
75.91                   0.313767         169.603         0.949558         99.0551         0.949536         99.0562         0.314136        -151.546
75.945                  0.313898         169.163         0.949515         98.6183         0.949494         98.6194         0.314279        -151.982
75.98                    0.31403         168.723         0.949472         98.1812         0.949451         98.1823         0.314423        -152.417
76.015                  0.314162         168.282         0.949429         97.7437         0.949408         97.7449         0.314567        -152.853
76.05                   0.314295         167.841         0.949385         97.3059         0.949365         97.3071         0.314712        -153.288
76.085                  0.314429         167.399         0.949341         96.8679         0.949322         96.8691         0.314856        -153.724
76.12                   0.314563         166.957         0.949297         96.4295         0.949278         96.4307         0.315001         -154.16
76.155                  0.314698         166.514         0.949252         95.9908         0.949233          95.992         0.315147        -154.595
76.19                   0.314833         166.071         0.949207         95.5518         0.949189          95.553         0.315292        -155.031
76.225                  0.314969         165.627         0.949162         95.1125         0.949144         95.1138         0.315438        -155.467
76.26                   0.315106         165.183         0.949117         94.6729         0.949099         94.6742         0.315584        -155.903
76.295                  0.315243         164.738         0.949071          94.233         0.949053         94.2343          0.31573         -156.34
76.33                    0.31538         164.293         0.949025         93.7928         0.949008         93.7942         0.315876        -156.776
76.365                  0.315518         163.848         0.948979         93.3524         0.948962         93.3537         0.316023        -157.212
76.4                    0.315657         163.402         0.948932         92.9116         0.948916          92.913          0.31617        -157.648
76.435                  0.315796         162.955         0.948886         92.4706         0.948869          92.472         0.316317        -158.085
76.47                   0.315935         162.509         0.948838         92.0293         0.948822         92.0307         0.316464        -158.521
76.505                  0.316075         162.061         0.948791         91.5878         0.948775         91.5892         0.316611        -158.958
76.54                   0.316215         161.613         0.948744         91.1459         0.948728         91.1473         0.316758        -159.394
76.575                  0.316356         161.165         0.948696         90.7038         0.948681         90.7052         0.316906        -159.831
76.61                   0.316497         160.717         0.948648         90.2615         0.948633         90.2629         0.317053        -160.268
76.645                  0.316639         160.267           0.9486         89.8189         0.948585         89.8203         0.317201        -160.704
76.68                   0.316781         159.818         0.948551          89.376         0.948537         89.3774         0.317349        -161.141
76.715                  0.316923         159.368         0.948503         88.9328         0.948489         88.9343         0.317497        -161.578
76.75                   0.317066         158.918         0.948454         88.4895          0.94844         88.4909         0.317645        -162.015
76.785                  0.317209         158.467         0.948405         88.0458         0.948391         88.0473         0.317793        -162.452
76.82                   0.317353         158.016         0.948356          87.602         0.948342         87.6034         0.317941        -162.889
76.855                  0.317497         157.564         0.948306         87.1579         0.948293         87.1593         0.318089        -163.326
76.89                   0.317641         157.112         0.948257         86.7135         0.948244          86.715         0.318237        -163.763
76.925                  0.317785          156.66         0.948207          86.269         0.948195         86.2704         0.318385          -164.2
76.96                    0.31793         156.207         0.948157         85.8242         0.948145         85.8256         0.318533        -164.637
76.995                  0.318075         155.754         0.948107         85.3791         0.948095         85.3806         0.318681        -165.074
77.03                    0.31822         155.301         0.948057         84.9339         0.948046         84.9354         0.318829        -165.511
77.065                  0.318366         154.847         0.948007         84.4884         0.947996         84.4899         0.318977        -165.948
77.1                    0.318512         154.392         0.947957         84.0427         0.947945         84.0442         0.319125        -166.385
77.135                  0.318658         153.938         0.947906         83.5968         0.947895         83.5983         0.319273        -166.823
77.17                   0.318804         153.483         0.947856         83.1507         0.947845         83.1522          0.31942         -167.26
77.205                   0.31895         153.027         0.947805         82.7044         0.947794         82.7059         0.319568        -167.697
77.24                   0.319097         152.572         0.947754         82.2579         0.947744         82.2594         0.319716        -168.134
77.275                  0.319244         152.116         0.947703         81.8112         0.947693         81.8127         0.319863        -168.572
77.31                    0.31939         151.659         0.947652         81.3643         0.947642         81.3657          0.32001        -169.009
77.345                  0.319538         151.202         0.947601         80.9172         0.947591         80.9186         0.320157        -169.446
77.38                   0.319685         150.745          0.94755         80.4699          0.94754         80.4713         0.320304        -169.883
77.415                  0.319832         150.288         0.947499         80.0224         0.947489         80.0238         0.320451        -170.321
77.45                   0.319979          149.83         0.947447         79.5747         0.947438         79.5762         0.320598        -170.758
77.485                  0.320127         149.372         0.947396         79.1269         0.947387         79.1283         0.320744        -171.195
77.52                   0.320274         148.914         0.947345         78.6788         0.947336         78.6803         0.320891        -171.633
77.555                  0.320422         148.455         0.947293         78.2306         0.947285         78.2321         0.321037         -172.07
77.59                   0.320569         147.996         0.947242         77.7823         0.947234         77.7837         0.321182        -172.507
77.625                  0.320717         147.536          0.94719         77.3337         0.947182         77.3351         0.321328        -172.945
77.66                   0.320864         147.077         0.947139          76.885         0.947131         76.8864         0.321473        -173.382
77.695                  0.321012         146.617         0.947087         76.4361          0.94708         76.4375         0.321618        -173.819
77.73                   0.321159         146.156         0.947036         75.9871         0.947028         75.9885         0.321763        -174.256
77.765                  0.321307         145.696         0.946984         75.5379         0.946977         75.5393         0.321907        -174.694
77.8                    0.321454         145.235         0.946933         75.0886         0.946926         75.0899         0.322051        -175.131
77.835                  0.321602         144.774         0.946881         74.6391         0.946875         74.6404         0.322195        -175.568
77.87                   0.321749         144.312          0.94683         74.1895         0.946823         74.1908         0.322338        -176.005
77.905                  0.321896         143.851         0.946779         73.7397         0.946772          73.741         0.322481        -176.443
77.94                   0.322043         143.389         0.946727         73.2898         0.946721         73.2911         0.322624         -176.88
77.975                   0.32219         142.927         0.946676         72.8397          0.94667          72.841         0.322766        -177.317
78.01                   0.322336         142.464         0.946625         72.3895         0.946619         72.3908         0.322908        -177.754
78.045                  0.322483         142.001         0.946573         71.9392         0.946568         71.9404          0.32305        -178.191
78.08                   0.322629         141.538         0.946522         71.4887         0.946517           71.49         0.323191        -178.628
78.115                  0.322775         141.075         0.946471         71.0381         0.946466         71.0394         0.323332        -179.065
78.15                   0.322921         140.611          0.94642         70.5874         0.946415         70.5887         0.323472        -179.503
78.185                  0.323066         140.148          0.94637         70.1366         0.946365         70.1378         0.323612         -179.94
78.22                   0.323212         139.684         0.946319         69.6857         0.946314         69.6869         0.323751         179.623
78.255                  0.323357         139.219         0.946268         69.2346         0.946263         69.2358          0.32389         179.186
78.29                   0.323501         138.755         0.946218         68.7834         0.946213         68.7846         0.324028         178.749
78.325                  0.323646          138.29         0.946167         68.3322         0.946163         68.3333         0.324166         178.312
78.36                    0.32379         137.825         0.946117         67.8808         0.946113         67.8819         0.324303         177.876
78.395                  0.323934          137.36         0.946067         67.4293         0.946063         67.4304          0.32444         177.439
78.43                   0.324077         136.895         0.946017         66.9777         0.946013         66.9788         0.324576         177.002
78.465                   0.32422         136.429         0.945967          66.526         0.945963         66.5271         0.324712         176.565
78.5                    0.324363         135.963         0.945917         66.0742         0.945913         66.0753         0.324847         176.128
78.535                  0.324505         135.497         0.945868         65.6224         0.945864         65.6234         0.324981         175.692
78.57                   0.324646         135.031         0.945818         65.1704         0.945815         65.1714         0.325115         175.255
78.605                  0.324788         134.565         0.945769         64.7183         0.945766         64.7193         0.325249         174.818
78.64                   0.324928         134.098          0.94572         64.2662         0.945717         64.2672         0.325381         174.382
78.675                  0.325069         133.631         0.945671          63.814         0.945668          63.815         0.325513         173.945
78.71                   0.325209         133.164         0.945622         63.3617          0.94562         63.3626         0.325645         173.508
78.745                  0.325348         132.697         0.945574         62.9093         0.945571         62.9103         0.325775         173.072
78.78                   0.325487          132.23         0.945526         62.4569         0.945523         62.4578         0.325905         172.635
78.815                  0.325625         131.762         0.945478         62.0044         0.945475         62.0052         0.326035         172.199
78.85                   0.325762         131.295          0.94543         61.5518         0.945427         61.5526         0.326163         171.763
78.885                  0.325899         130.827         0.945382         61.0991          0.94538            61.1         0.326291         171.326
78.92                   0.326036         130.359         0.945335         60.6464         0.945333         60.6472         0.326418          170.89
78.955                  0.326172         129.891         0.945288         60.1936         0.945286         60.1944         0.326545         170.454
78.99                   0.326307         129.422         0.945241         59.7408         0.945239         59.7416          0.32667         170.017
79.025                  0.326441         128.954         0.945195         59.2879         0.945193         59.2887         0.326795         169.581
79.06                   0.326575         128.485         0.945148          58.835         0.945146         58.8357          0.32692         169.145
79.095                  0.326708         128.016         0.945102          58.382           0.9451         58.3827         0.327043         168.709
79.13                    0.32684         127.548         0.945057         57.9289         0.945055         57.9296         0.327165         168.273
79.165                  0.326972         127.079         0.945011         57.4758         0.945009         57.4765         0.327287         167.837
79.2                    0.327103         126.609         0.944966         57.0227         0.944964         57.0233         0.327408         167.401
79.235                  0.327233          126.14         0.944921         56.5695         0.944919         56.5701         0.327528         166.965
79.27                   0.327362         125.671         0.944876         56.1163         0.944875         56.1169         0.327647         166.529
79.305                  0.327491         125.201         0.944832          55.663         0.944831         55.6636         0.327765         166.094
79.34                   0.327619         124.732         0.944788         55.2098         0.944787         55.2103         0.327883         165.658
79.375                  0.327745         124.262         0.944744         54.7564         0.944743          54.757         0.327999         165.222
79.41                   0.327871         123.792         0.944701         54.3031           0.9447         54.3036         0.328115         164.787
79.445                  0.327997         123.322         0.944658         53.8497         0.944657         53.8502          0.32823         164.351
79.48                   0.328121         122.852         0.944615         53.3963         0.944614         53.3968         0.328343         163.915
79.515                  0.328244         122.382         0.944573         52.9429         0.944572         52.9433         0.328456          163.48
79.55                   0.328367         121.912         0.944531         52.4894          0.94453         52.4898         0.328568         163.045
79.585                  0.328488         121.441         0.944489         52.0359         0.944489         52.0363         0.328679         162.609
79.62                   0.328609         120.971         0.944448         51.5824         0.944447         51.5828         0.328789         162.174
79.655                  0.328728           120.5         0.944407         51.1289         0.944407         51.1293         0.328898         161.739
79.69                   0.328847          120.03         0.944367         50.6754         0.944366         50.6758         0.329006         161.303
79.725                  0.328964         119.559         0.944327         50.2219         0.944326         50.2222         0.329112         160.868
79.76                   0.329081         119.088         0.944287         49.7684         0.944286         49.7686         0.329218         160.433
79.795                  0.329196         118.618         0.944248         49.3148         0.944247         49.3151         0.329323         159.998
79.83                   0.329311         118.147         0.944209         48.8613         0.944208         48.8615         0.329427         159.563
79.865                  0.329424         117.676          0.94417         48.4077          0.94417         48.4079         0.329529         159.128
79.9                    0.329536         117.205         0.944132         47.9542         0.944132         47.9543         0.329631         158.693
79.935                  0.329647         116.734         0.944094         47.5006         0.944094         47.5008         0.329732         158.258
79.97                   0.329757         116.263         0.944057          47.047         0.944057         47.0472         0.329831         157.823
80.005                  0.329866         115.791          0.94402         46.5935          0.94402         46.5936         0.329929         157.389
80.04                   0.329974          115.32         0.943984           46.14         0.943983         46.1401         0.330026         156.954
80.075                   0.33008         114.849         0.943948         45.6864         0.943947         45.6865         0.330122         156.519
80.11                   0.330186         114.378         0.943912         45.2329         0.943912          45.233         0.330217         156.085
80.145                   0.33029         113.906         0.943877         44.7794         0.943877         44.7794         0.330311          155.65
80.18                   0.330393         113.435         0.943842         44.3259         0.943842         44.3259         0.330403         155.216
80.215                  0.330495         112.964         0.943808         43.8724         0.943808         43.8724         0.330495         154.781
80.25                   0.330595         112.492         0.943774         43.4189         0.943774         43.4189         0.330585         154.347
80.285                  0.330694         112.021         0.943741         42.9655         0.943741         42.9654         0.330673         153.913
80.32                   0.330792         111.549         0.943708          42.512         0.943708          42.512         0.330761         153.478
80.355                  0.330888         111.078         0.943676         42.0586         0.943676         42.0585         0.330848         153.044
80.39                   0.330984         110.606         0.943644         41.6052         0.943644         41.6051         0.330933          152.61
80.425                  0.331078         110.135         0.943612         41.1519         0.943613         41.1518         0.331017         152.176
80.46                    0.33117         109.663         0.943581         40.6985         0.943582         40.6984         0.331099         151.742
80.495                  0.331261         109.192         0.943551         40.2452         0.943551         40.2451         0.331181         151.308
80.53                   0.331351          108.72         0.943521          39.792         0.943521         39.7918         0.331261         150.874
80.565                  0.331439         108.249         0.943492         39.3387         0.943492         39.3385         0.331339          150.44
80.6                    0.331526         107.777         0.943463         38.8855         0.943463         38.8853         0.331417         150.006
80.635                  0.331612         107.305         0.943435         38.4323         0.943435         38.4321         0.331493         149.572
80.67                   0.331696         106.834         0.943407         37.9792         0.943407         37.9789         0.331568         149.138
80.705                  0.331779         106.362         0.943379         37.5261          0.94338         37.5258         0.331641         148.705
80.74                    0.33186         105.891         0.943353          37.073         0.943353         37.0727         0.331713         148.271
80.775                   0.33194         105.419         0.943326           36.62         0.943327         36.6196         0.331784         147.837
80.81                   0.332018         104.948           0.9433          36.167         0.943301         36.1666         0.331853         147.404
80.845                  0.332094         104.476         0.943275          35.714         0.943276         35.7136         0.331921          146.97
80.88                    0.33217         104.005         0.943251         35.2611         0.943251         35.2607         0.331988         146.537
80.915                  0.332243         103.534         0.943227         34.8082         0.943227         34.8078         0.332053         146.103
80.95                   0.332315         103.062         0.943203         34.3554         0.943203          34.355         0.332116          145.67
80.985                  0.332386         102.591          0.94318         33.9027          0.94318         33.9022         0.332179         145.237
81.02                   0.332455          102.12         0.943157         33.4499         0.943158         33.4495         0.332239         144.803
81.055                  0.332522         101.648         0.943136         32.9973         0.943136         32.9968         0.332299          144.37
81.09                   0.332588         101.177         0.943114         32.5446         0.943115         32.5441         0.332357         143.937
81.125                  0.332652         100.706         0.943094         32.0921         0.943094         32.0916         0.332413         143.504
81.16                   0.332714         100.235         0.943073         31.6395         0.943074          31.639         0.332468         143.071
81.195                  0.332775         99.7636         0.943054         31.1871         0.943054         31.1865         0.332521         142.637
81.23                   0.332834         99.2925         0.943035         30.7347         0.943035         30.7341         0.332573         142.204
81.265                  0.332892         98.8215         0.943016         30.2823         0.943017         30.2817         0.332623         141.772
81.3                    0.332947         98.3505         0.942998           29.83         0.942999         29.8294         0.332672         141.339
81.335                  0.333002         97.8796         0.942981         29.3778         0.942981         29.3772          0.33272         140.906
81.37                   0.333054         97.4088         0.942965         28.9256         0.942965          28.925         0.332765         140.473
81.405                  0.333105          96.938         0.942948         28.4735         0.942949         28.4728         0.332809          140.04
81.44                   0.333153         96.4673         0.942933         28.0214         0.942933         28.0208         0.332852         139.607
81.475                  0.333201         95.9966         0.942918         27.5694         0.942918         27.5687         0.332893         139.175
81.51                   0.333246          95.526         0.942904         27.1175         0.942904         27.1168         0.332933         138.742
81.545                   0.33329         95.0555          0.94289         26.6656         0.942891         26.6649          0.33297         138.309
81.58                   0.333332          94.585         0.942877         26.2138         0.942877         26.2131         0.333007         137.877
81.615                  0.333372         94.1146         0.942865          25.762         0.942865         25.7613         0.333041         137.444
81.65                    0.33341         93.6443         0.942853         25.3103         0.942853         25.3096         0.333074         137.012
81.685                  0.333446          93.174         0.942842         24.8587         0.942842          24.858         0.333106         136.579
81.72                   0.333481         92.7039         0.942831         24.4072         0.942831         24.4064         0.333135         136.147
81.755                  0.333514         92.2338         0.942821         23.9557         0.942822         23.9549         0.333163         135.714
81.79                   0.333545         91.7638         0.942812         23.5043         0.942812         23.5035          0.33319         135.282
81.825                  0.333574         91.2939         0.942803         23.0529         0.942804         23.0522         0.333215         134.849
81.86                   0.333601          90.824         0.942795         22.6017         0.942796         22.6009         0.333238         134.417
81.895                  0.333626         90.3543         0.942788         22.1505         0.942788         22.1497         0.333259         133.985