! TOUCHSTONE file generated by CST MICROWAVE STUDIO
! Date and time: Fri Feb  2 21:30:06 2024
! Project name: material_prueba.cst
! Header version: 2018
! Port assignment regex: !\s*Touchstone port\s*([0-9]+)\s*=\s*(CST MWS port|CST DS port)\s*([0-9]+|Zmin|Zmax)\s*\(\"(.*)\"\)(\s*mode\s*([0-9]+))?.*
! Touchstone port assignment:
! Touchstone port 1 = CST MWS port 1 ("")
! Touchstone port 2 = CST MWS port 2 ("")
# GHz S MA R 376.7
75                      0.312689        -160.136         0.949856         109.869         0.949856         109.869         0.312689        -160.127
75.035                  0.312913         -160.58         0.949781         109.423         0.949781         109.423         0.312913        -160.572
75.07                   0.313136        -161.025         0.949706         108.976         0.949706         108.976         0.313136        -161.016
75.105                  0.313359         -161.47         0.949632          108.53         0.949632          108.53         0.313358        -161.461
75.14                    0.31358        -161.914         0.949559         108.084         0.949559         108.084         0.313579        -161.906
75.175                    0.3138        -162.359         0.949485         107.638         0.949485         107.638         0.313799        -162.351
75.21                   0.314019        -162.804         0.949412         107.192         0.949412         107.192         0.314018        -162.796
75.245                  0.314237        -163.249         0.949339         106.746         0.949339         106.746         0.314235        -163.241
75.28                   0.314454        -163.694         0.949267           106.3         0.949267           106.3         0.314452        -163.686
75.315                  0.314669        -164.139         0.949195         105.853         0.949195         105.853         0.314667        -164.131
75.35                   0.314884        -164.584         0.949123         105.407         0.949123         105.407         0.314882        -164.576
75.385                  0.315098         -165.03         0.949052         104.961         0.949052         104.961         0.315095        -165.021
75.42                    0.31531        -165.475         0.948981         104.515         0.948981         104.515         0.315307        -165.466
75.455                  0.315521         -165.92          0.94891         104.068          0.94891         104.068         0.315519        -165.912
75.49                   0.315731        -166.365          0.94884         103.622          0.94884         103.622         0.315729        -166.357
75.525                  0.315941        -166.811          0.94877         103.176          0.94877         103.176         0.315938        -166.802
75.56                   0.316149        -167.256           0.9487          102.73           0.9487          102.73         0.316145        -167.248
75.595                  0.316355        -167.702         0.948631         102.283         0.948631         102.283         0.316352        -167.693
75.63                   0.316561        -168.147         0.948562         101.837         0.948562         101.837         0.316558        -168.139
75.665                  0.316766        -168.593         0.948493         101.391         0.948493         101.391         0.316762        -168.584
75.7                    0.316969        -169.038         0.948425         100.945         0.948425         100.945         0.316965         -169.03
75.735                  0.317171        -169.484         0.948357         100.498         0.948357         100.498         0.317168        -169.476
75.77                   0.317373        -169.929         0.948289         100.052         0.948289         100.052         0.317369        -169.921
75.805                  0.317573        -170.375         0.948222         99.6057         0.948222         99.6057         0.317569        -170.367
75.84                   0.317771        -170.821         0.948155         99.1594         0.948155         99.1594         0.317767        -170.813
75.875                  0.317969        -171.267         0.948089         98.7131         0.948089         98.7131         0.317965        -171.259
75.91                   0.318166        -171.712         0.948023         98.2667         0.948023         98.2667         0.318161        -171.704
75.945                  0.318361        -172.158         0.947957         97.8204         0.947957         97.8204         0.318357         -172.15
75.98                   0.318555        -172.604         0.947892         97.3741         0.947892         97.3741         0.318551        -172.596
76.015                  0.318749         -173.05         0.947826         96.9278         0.947826         96.9278         0.318744        -173.042
76.05                    0.31894        -173.496         0.947762         96.4814         0.947762         96.4814         0.318936        -173.488
76.085                  0.319131        -173.942         0.947698         96.0351         0.947698         96.0351         0.319127        -173.934
76.12                   0.319321        -174.388         0.947634         95.5888         0.947634         95.5888         0.319316         -174.38
76.155                  0.319509        -174.834          0.94757         95.1424          0.94757         95.1424         0.319504        -174.826
76.19                   0.319697         -175.28         0.947507         94.6961         0.947507         94.6961         0.319692        -175.272
76.225                  0.319883        -175.726         0.947444         94.2498         0.947444         94.2498         0.319878        -175.718
76.26                   0.320067        -176.172         0.947382         93.8034         0.947382         93.8034         0.320063        -176.164
76.295                  0.320251        -176.618          0.94732         93.3571          0.94732         93.3571         0.320246         -176.61
76.33                   0.320434        -177.064         0.947258         92.9108         0.947258         92.9108         0.320429        -177.057
76.365                  0.320615         -177.51         0.947196         92.4644         0.947196         92.4644          0.32061        -177.503
76.4                    0.320795        -177.956         0.947136         92.0181         0.947136         92.0181          0.32079        -177.949
76.435                  0.320974        -178.402         0.947075         91.5718         0.947075         91.5718         0.320969        -178.395
76.47                   0.321152        -178.849         0.947015         91.1254         0.947015         91.1254         0.321147        -178.842
76.505                  0.321329        -179.295         0.946955         90.6791         0.946955         90.6791         0.321323        -179.288
76.54                   0.321504        -179.741         0.946895         90.2328         0.946895         90.2328         0.321499        -179.734
76.575                  0.321678         179.813         0.946836         89.7865         0.946836         89.7865         0.321673          179.82
76.61                   0.321851         179.366         0.946778         89.3401         0.946778         89.3401         0.321846         179.373
76.645                  0.322023          178.92         0.946719         88.8938         0.946719         88.8938         0.322018         178.927
76.68                   0.322193         178.474         0.946662         88.4475         0.946662         88.4475         0.322188         178.481
76.715                  0.322363         178.027         0.946604         88.0012         0.946604         88.0012         0.322358         178.034
76.75                   0.322531         177.581         0.946547         87.5549         0.946547         87.5549         0.322526         177.588
76.785                  0.322698         177.135          0.94649         87.1086          0.94649         87.1086         0.322693         177.141
76.82                   0.322864         176.688         0.946434         86.6623         0.946434         86.6623         0.322858         176.695
76.855                  0.323028         176.242         0.946378          86.216         0.946378          86.216         0.323023         176.249
76.89                   0.323191         175.796         0.946322         85.7697         0.946322         85.7697         0.323186         175.802
76.925                  0.323353         175.349         0.946267         85.3234         0.946267         85.3234         0.323348         175.356
76.96                   0.323514         174.903         0.946212         84.8772         0.946212         84.8772         0.323509         174.909
76.995                  0.323674         174.457         0.946158         84.4309         0.946158         84.4309         0.323669         174.463
77.03                   0.323832          174.01         0.946104         83.9846         0.946104         83.9846         0.323827         174.016
77.065                  0.323989         173.564          0.94605         83.5383          0.94605         83.5383         0.323984          173.57
77.1                    0.324145         173.117         0.945997         83.0921         0.945997         83.0921          0.32414         173.123
77.135                    0.3243         172.671         0.945944         82.6458         0.945944         82.6458         0.324295         172.677
77.17                   0.324454         172.224         0.945892         82.1996         0.945892         82.1996         0.324449          172.23
77.205                  0.324606         171.778          0.94584         81.7534          0.94584         81.7534         0.324601         171.784
77.24                   0.324757         171.331         0.945788         81.3071         0.945788         81.3071         0.324752         171.337
77.275                  0.324907         170.885         0.945737         80.8609         0.945737         80.8609         0.324902         170.891
77.31                   0.325055         170.439         0.945686         80.4147         0.945686         80.4147         0.325051         170.444
77.345                  0.325203         169.992         0.945635         79.9685         0.945635         79.9685         0.325198         169.998
77.38                   0.325349         169.546         0.945585         79.5223         0.945585         79.5223         0.325344         169.551
77.415                  0.325494         169.099         0.945536         79.0761         0.945536         79.0761         0.325489         169.104
77.45                   0.325637         168.653         0.945486         78.6299         0.945486         78.6299         0.325633         168.658
77.485                   0.32578         168.206         0.945438         78.1837         0.945438         78.1837         0.325775         168.211
77.52                   0.325921          167.76         0.945389         77.7375         0.945389         77.7375         0.325916         167.765
77.555                  0.326061         167.313         0.945341         77.2914         0.945341         77.2914         0.326056         167.318
77.59                   0.326199         166.867         0.945294         76.8452         0.945294         76.8452         0.326195         166.872
77.625                  0.326337          166.42         0.945246         76.3991         0.945246         76.3991         0.326332         166.425
77.66                   0.326473         165.974           0.9452         75.9529           0.9452         75.9529         0.326469         165.979
77.695                  0.326608         165.527         0.945153         75.5068         0.945153         75.5068         0.326604         165.532
77.73                   0.326741         165.081         0.945107         75.0607         0.945107         75.0607         0.326737         165.086
77.765                  0.326874         164.634         0.945062         74.6145         0.945062         74.6145          0.32687         164.639
77.8                    0.327005         164.188         0.945016         74.1684         0.945016         74.1684         0.327001         164.192
77.835                  0.327135         163.742         0.944972         73.7223         0.944972         73.7223         0.327131         163.746
77.87                   0.327264         163.295         0.944927         73.2762         0.944927         73.2762          0.32726         163.299
77.905                  0.327391         162.849         0.944883         72.8302         0.944883         72.8302         0.327387         162.853
77.94                   0.327517         162.402          0.94484         72.3841          0.94484         72.3841         0.327514         162.406
77.975                  0.327642         161.956         0.944797          71.938         0.944797          71.938         0.327639          161.96
78.01                   0.327766         161.509         0.944754          71.492         0.944754          71.492         0.327762         161.513
78.045                  0.327888         161.063         0.944712         71.0459         0.944712         71.0459         0.327885         161.067
78.08                    0.32801         160.616          0.94467         70.5999          0.94467         70.5999         0.328006          160.62
78.115                  0.328129          160.17         0.944628         70.1539         0.944628         70.1539         0.328126         160.174
78.15                   0.328248         159.724         0.944587         69.7079         0.944587         69.7079         0.328245         159.727
78.185                  0.328366         159.277         0.944547         69.2618         0.944547         69.2618         0.328362         159.281
78.22                   0.328482         158.831         0.944506         68.8158         0.944506         68.8158         0.328479         158.834
78.255                  0.328597         158.384         0.944467         68.3699         0.944467         68.3699         0.328594         158.388
78.29                    0.32871         157.938         0.944427         67.9239         0.944427         67.9239         0.328707         157.941
78.325                  0.328823         157.492         0.944388         67.4779         0.944388         67.4779          0.32882         157.495
78.36                   0.328934         157.045          0.94435         67.0319          0.94435         67.0319         0.328931         157.048
78.395                  0.329044         156.599         0.944312          66.586         0.944312          66.586         0.329041         156.602
78.43                   0.329152         156.153         0.944274         66.1401         0.944274         66.1401          0.32915         156.156
78.465                   0.32926         155.706         0.944237         65.6941         0.944237         65.6941         0.329257         155.709
78.5                    0.329366          155.26           0.9442         65.2482           0.9442         65.2482         0.329363         155.263
78.535                  0.329471         154.814         0.944163         64.8023         0.944163         64.8023         0.329468         154.816
78.57                   0.329574         154.367         0.944127         64.3564         0.944127         64.3564         0.329572          154.37
78.605                  0.329677         153.921         0.944092         63.9105         0.944092         63.9105         0.329674         153.924
78.64                   0.329778         153.475         0.944057         63.4646         0.944057         63.4646         0.329776         153.477
78.675                  0.329878         153.028         0.944022         63.0187         0.944022         63.0187         0.329876         153.031
78.71                   0.329976         152.582         0.943987         62.5729         0.943987         62.5729         0.329974         152.584
78.745                  0.330073         152.136         0.943954          62.127         0.943954          62.127         0.330072         152.138
78.78                   0.330169          151.69          0.94392         61.6812          0.94392         61.6812         0.330168         151.692
78.815                  0.330264         151.243         0.943887         61.2354         0.943887         61.2354         0.330263         151.245
78.85                   0.330358         150.797         0.943854         60.7895         0.943854         60.7895         0.330356         150.799
78.885                   0.33045         150.351         0.943822         60.3437         0.943822         60.3437         0.330449         150.353
78.92                   0.330541         149.905          0.94379         59.8979          0.94379         59.8979          0.33054         149.907
78.955                  0.330631         149.459         0.943759         59.4521         0.943759         59.4521         0.330629          149.46
78.99                   0.330719         149.012         0.943728         59.0063         0.943728         59.0063         0.330718         149.014
79.025                  0.330807         148.566         0.943698         58.5606         0.943698         58.5606         0.330805         148.568
79.06                   0.330893          148.12         0.943668         58.1148         0.943668         58.1148         0.330891         148.121
79.095                  0.330977         147.674         0.943638          57.669         0.943638          57.669         0.330976         147.675
79.13                   0.331061         147.228         0.943609         57.2233         0.943609         57.2233          0.33106         147.229
79.165                  0.331143         146.782          0.94358         56.7775          0.94358         56.7775         0.331142         146.783
79.2                    0.331224         146.336         0.943552         56.3318         0.943552         56.3318         0.331223         146.337
79.235                  0.331304          145.89         0.943524         55.8861         0.943524         55.8861         0.331303          145.89
79.27                   0.331382         145.444         0.943496         55.4404         0.943496         55.4404         0.331381         145.444
79.305                  0.331459         144.997         0.943469         54.9947         0.943469         54.9947         0.331459         144.998
79.34                   0.331535         144.551         0.943443          54.549         0.943443          54.549         0.331535         144.552
79.375                   0.33161         144.105         0.943416         54.1033         0.943416         54.1033         0.331609         144.106
79.41                   0.331683         143.659         0.943391         53.6576         0.943391         53.6576         0.331683          143.66
79.445                  0.331755         143.213         0.943365          53.212         0.943365          53.212         0.331755         143.214
79.48                   0.331826         142.767          0.94334         52.7663          0.94334         52.7663         0.331826         142.768
79.515                  0.331896         142.321         0.943316         52.3207         0.943316         52.3207         0.331896         142.321
79.55                   0.331964         141.875         0.943292          51.875         0.943292          51.875         0.331964         141.875
79.585                  0.332031         141.429         0.943268         51.4294         0.943268         51.4294         0.332031         141.429
79.62                   0.332097         140.984         0.943245         50.9838         0.943245         50.9838         0.332097         140.983
79.655                  0.332162         140.538         0.943222         50.5382         0.943222         50.5382         0.332162         140.537
79.69                   0.332225         140.092           0.9432         50.0926           0.9432         50.0926         0.332225         140.091
79.725                  0.332287         139.646         0.943178          49.647         0.943178          49.647         0.332288         139.645
79.76                   0.332348           139.2         0.943157         49.2014         0.943157         49.2014         0.332348         139.199
79.795                  0.332408         138.754         0.943136         48.7558         0.943136         48.7558         0.332408         138.753
79.83                   0.332466         138.308         0.943115         48.3103         0.943115         48.3103         0.332466         138.307
79.865                  0.332523         137.862         0.943095         47.8647         0.943095         47.8647         0.332524         137.861
79.9                    0.332579         137.416         0.943076         47.4191         0.943076         47.4191         0.332579         137.416
79.935                  0.332633         136.971         0.943056         46.9736         0.943056         46.9736         0.332634          136.97
79.97                   0.332687         136.525         0.943037         46.5281         0.943037         46.5281         0.332687         136.524
80.005                  0.332739         136.079         0.943019         46.0825         0.943019         46.0825          0.33274         136.078
80.04                    0.33279         135.633         0.943001          45.637         0.943001          45.637          0.33279         135.632
80.075                  0.332839         135.187         0.942984         45.1915         0.942984         45.1915          0.33284         135.186
80.11                   0.332888         134.742         0.942967          44.746         0.942967          44.746         0.332888          134.74
80.145                  0.332935         134.296          0.94295         44.3005          0.94295         44.3005         0.332936         134.294
80.18                    0.33298          133.85         0.942934          43.855         0.942934          43.855         0.332981         133.849
80.215                  0.333025         133.405         0.942918         43.4095         0.942918         43.4095         0.333026         133.403
80.25                   0.333068         132.959         0.942903          42.964         0.942903          42.964         0.333069         132.957
80.285                   0.33311         132.513         0.942888         42.5186         0.942888         42.5186         0.333111         132.511
80.32                   0.333151         132.067         0.942873         42.0731         0.942873         42.0731         0.333152         132.066
80.355                  0.333191         131.622         0.942859         41.6276         0.942859         41.6276         0.333192          131.62
80.39                   0.333229         131.176         0.942846         41.1822         0.942846         41.1822          0.33323         131.174
80.425                  0.333266          130.73         0.942833         40.7368         0.942833         40.7368         0.333267         130.728
80.46                   0.333302         130.285          0.94282         40.2913          0.94282         40.2913         0.333303         130.283
80.495                  0.333336         129.839         0.942808         39.8459         0.942808         39.8459         0.333338         129.837
80.53                    0.33337         129.394         0.942796         39.4005         0.942796         39.4005         0.333371         129.391
80.565                  0.333402         128.948         0.942784          38.955         0.942784          38.955         0.333403         128.946
80.6                    0.333433         128.502         0.942773         38.5096         0.942773         38.5096         0.333434           128.5
80.635                  0.333462         128.057         0.942763         38.0642         0.942763         38.0642         0.333464         128.054
80.67                    0.33349         127.611         0.942753         37.6188         0.942753         37.6188         0.333492         127.609
80.705                  0.333517         127.166         0.942743         37.1734         0.942743         37.1734         0.333519         127.163
80.74                   0.333543          126.72         0.942734          36.728         0.942734          36.728         0.333545         126.717
80.775                  0.333568         126.275         0.942725         36.2827         0.942725         36.2827          0.33357         126.272
80.81                   0.333591         125.829         0.942717         35.8373         0.942717         35.8373         0.333593         125.826
80.845                  0.333613         125.384         0.942709         35.3919         0.942709         35.3919         0.333615         125.381
80.88                   0.333634         124.938         0.942702         34.9465         0.942702         34.9465         0.333636         124.935
80.915                  0.333654         124.493         0.942695         34.5012         0.942695         34.5012         0.333656         124.489
80.95                   0.333672         124.047         0.942688         34.0558         0.942688         34.0558         0.333674         124.044
80.985                  0.333689         123.602         0.942682         33.6105         0.942682         33.6105         0.333691         123.598
81.02                   0.333705         123.156         0.942676         33.1651         0.942676         33.1651         0.333707         123.153
81.055                   0.33372         122.711         0.942671         32.7198         0.942671         32.7198         0.333722         122.707
81.09                   0.333733         122.265         0.942666         32.2744         0.942666         32.2744         0.333735         122.262
81.125                  0.333745          121.82         0.942662         31.8291         0.942662         31.8291         0.333747         121.816
81.16                   0.333756         121.375         0.942658         31.3838         0.942658         31.3838         0.333758         121.371
81.195                  0.333766         120.929         0.942654         30.9384         0.942654         30.9384         0.333768         120.925
81.23                   0.333774         120.484         0.942651         30.4931         0.942651         30.4931         0.333776          120.48
81.265                  0.333782         120.038         0.942649         30.0478         0.942649         30.0478         0.333784         120.034
81.3                    0.333788         119.593         0.942647         29.6025         0.942647         29.6025          0.33379         119.589
81.335                  0.333792         119.148         0.942645         29.1572         0.942645         29.1572         0.333794         119.144
81.37                   0.333796         118.702         0.942644         28.7118         0.942644         28.7118         0.333798         118.698
81.405                  0.333798         118.257         0.942643         28.2665         0.942643         28.2665           0.3338         118.253
81.44                   0.333799         117.812         0.942642         27.8212         0.942642         27.8212         0.333801         117.807
81.475                  0.333799         117.366         0.942642         27.3759         0.942642         27.3759         0.333801         117.362
81.51                   0.333797         116.921         0.942643         26.9306         0.942643         26.9306         0.333799         116.916
81.545                  0.333795         116.476         0.942644         26.4853         0.942644         26.4853         0.333797         116.471
81.58                   0.333791          116.03         0.942645           26.04         0.942645           26.04         0.333793         116.026
81.615                  0.333785         115.585         0.942647         25.5947         0.942647         25.5947         0.333788          115.58
81.65                   0.333779          115.14         0.942649         25.1495         0.942649         25.1495         0.333781         115.135
81.685                  0.333771         114.695         0.942652         24.7042         0.942652         24.7042         0.333774          114.69
81.72                   0.333762         114.249         0.942655         24.2589         0.942655         24.2589         0.333765         114.244
81.755                  0.333752         113.804         0.942658         23.8136         0.942658         23.8136         0.333755         113.799
81.79                   0.333741         113.359         0.942662         23.3683         0.942662         23.3683         0.333743         113.354
81.825                  0.333728         112.914         0.942667          22.923         0.942667          22.923         0.333731         112.908
81.86                   0.333715         112.468         0.942671         22.4778         0.942671         22.4778         0.333717         112.463
81.895                    0.3337         112.023         0.942677         22.0325         0.942677         22.0325         0.333702         112.018