! TOUCHSTONE file generated by CST MICROWAVE STUDIO
! Date and time: Tue Feb 13 12:52:20 2024
! Project name: material_pared.cst
! Header version: 2018
! Port assignment regex: !\s*Touchstone port\s*([0-9]+)\s*=\s*(CST MWS port|CST DS port)\s*([0-9]+|Zmin|Zmax)\s*\(\"(.*)\"\)(\s*mode\s*([0-9]+))?.*
! Touchstone port assignment:
! Touchstone port 1 = CST MWS port 1 ("")
! Touchstone port 2 = CST MWS port 2 ("")
# GHz S MA R 376.7
75                      0.312686        -159.429         0.949857         110.223         0.949857         110.223         0.312686        -160.126
75.035                  0.312913        -159.539         0.949782         109.944         0.949782         109.944         0.312912        -160.573
75.07                    0.31314         -159.65         0.949707         109.665         0.949707         109.665         0.313138        -161.019
75.105                  0.313365        -159.761         0.949632         109.386         0.949632         109.386         0.313363        -161.466
75.14                   0.313589        -159.872         0.949558         109.107         0.949558         109.107         0.313586        -161.913
75.175                  0.313812        -159.982         0.949484         108.828         0.949484         108.828         0.313809        -162.359
75.21                   0.314033        -160.093         0.949411         108.549         0.949411         108.549          0.31403        -162.806
75.245                  0.314254        -160.204         0.949338         108.271         0.949338         108.271          0.31425        -163.252
75.28                   0.314473        -160.315         0.949265         107.992         0.949265         107.992         0.314468        -163.699
75.315                  0.314691        -160.425         0.949193         107.713         0.949193         107.713         0.314686        -164.146
75.35                   0.314908        -160.536         0.949121         107.434         0.949121         107.434         0.314902        -164.592
75.385                  0.315123        -160.646         0.949049         107.156         0.949049         107.156         0.315117        -165.039
75.42                   0.315337        -160.757         0.948978         106.877         0.948978         106.877         0.315331        -165.486
75.455                  0.315551        -160.868         0.948907         106.598         0.948907         106.598         0.315544        -165.932
75.49                   0.315762        -160.978         0.948837          106.32         0.948837          106.32         0.315756        -166.379
75.525                  0.315973        -161.089         0.948767         106.041         0.948767         106.041         0.315966        -166.825
75.56                   0.316182        -161.199         0.948697         105.762         0.948697         105.762         0.316176        -167.272
75.595                  0.316391         -161.31         0.948627         105.484         0.948627         105.484         0.316384        -167.718
75.63                   0.316598         -161.42         0.948558         105.205         0.948558         105.205          0.31659        -168.165
75.665                  0.316803        -161.531         0.948489         104.927         0.948489         104.927         0.316796        -168.612
75.7                    0.317008        -161.641         0.948421         104.648         0.948421         104.648         0.317001        -169.058
75.735                  0.317211        -161.752         0.948353         104.369         0.948353         104.369         0.317204        -169.505
75.77                   0.317413        -161.862         0.948286         104.091         0.948286         104.091         0.317406        -169.951
75.805                  0.317614        -161.973         0.948218         103.812         0.948218         103.812         0.317607        -170.398
75.84                   0.317814        -162.083         0.948151         103.534         0.948151         103.534         0.317806        -170.844
75.875                  0.318012        -162.193         0.948085         103.256         0.948085         103.256         0.318005        -171.291
75.91                   0.318209        -162.304         0.948019         102.977         0.948019         102.977         0.318202        -171.738
75.945                  0.318405        -162.414         0.947953         102.699         0.947953         102.699         0.318398        -172.184
75.98                     0.3186        -162.525         0.947888          102.42         0.947888          102.42         0.318593        -172.631
76.015                  0.318793        -162.635         0.947823         102.142         0.947823         102.142         0.318786        -173.077
76.05                   0.318986        -162.745         0.947758         101.863         0.947758         101.863         0.318979        -173.524
76.085                  0.319177        -162.855         0.947694         101.585         0.947694         101.585          0.31917         -173.97
76.12                   0.319366        -162.966          0.94763         101.307          0.94763         101.307          0.31936        -174.417
76.155                  0.319555        -163.076         0.947566         101.028         0.947566         101.028         0.319549        -174.863
76.19                   0.319742        -163.186         0.947503          100.75         0.947503          100.75         0.319736         -175.31
76.225                  0.319928        -163.296          0.94744         100.472          0.94744         100.472         0.319922        -175.756
76.26                   0.320113        -163.407         0.947378         100.194         0.947378         100.194         0.320107        -176.203
76.295                  0.320297        -163.517         0.947316         99.9153         0.947316         99.9153         0.320291        -176.649
76.33                   0.320479        -163.627         0.947254          99.637         0.947254          99.637         0.320474        -177.095
76.365                  0.320661        -163.737         0.947193         99.3588         0.947193         99.3588         0.320655        -177.542
76.4                    0.320841        -163.847         0.947132         99.0805         0.947132         99.0805         0.320836        -177.988
76.435                  0.321019        -163.957         0.947071         98.8023         0.947071         98.8023         0.321015        -178.435
76.47                   0.321197        -164.068         0.947011         98.5242         0.947011         98.5242         0.321192        -178.881
76.505                  0.321373        -164.178         0.946952          98.246         0.946952          98.246         0.321369        -179.327
76.54                   0.321548        -164.288         0.946892         97.9678         0.946892         97.9678         0.321544        -179.774
76.575                  0.321722        -164.398         0.946833         97.6897         0.946833         97.6897         0.321718          179.78
76.61                   0.321894        -164.508         0.946775         97.4115         0.946775         97.4115         0.321891         179.333
76.645                  0.322066        -164.618         0.946716         97.1334         0.946716         97.1334         0.322062         178.887
76.68                   0.322236        -164.728         0.946659         96.8553         0.946659         96.8553         0.322233         178.441
76.715                  0.322405        -164.838         0.946601         96.5772         0.946601         96.5772         0.322402         177.994
76.75                   0.322572        -164.948         0.946544         96.2992         0.946544         96.2992          0.32257         177.548
76.785                  0.322739        -165.058         0.946487         96.0211         0.946487         96.0211         0.322736         177.102
76.82                   0.322904        -165.168         0.946431         95.7431         0.946431         95.7431         0.322902         176.656
76.855                  0.323068        -165.278         0.946375          95.465         0.946375          95.465         0.323066         176.209
76.89                   0.323231        -165.388          0.94632          95.187          0.94632          95.187         0.323229         175.763
76.925                  0.323392        -165.498         0.946265          94.909         0.946265          94.909         0.323391         175.317
76.96                   0.323552        -165.608          0.94621          94.631          0.94621          94.631         0.323551         174.871
76.995                  0.323711        -165.718         0.946156          94.353         0.946156          94.353          0.32371         174.424
77.03                   0.323869        -165.827         0.946102         94.0751         0.946102         94.0751         0.323868         173.978
77.065                  0.324026        -165.937         0.946048         93.7971         0.946048         93.7971         0.324025         173.532
77.1                    0.324181        -166.047         0.945995         93.5192         0.945995         93.5192         0.324181         173.086
77.135                  0.324335        -166.157         0.945942         93.2412         0.945942         93.2412         0.324335          172.64
77.17                   0.324488        -166.267          0.94589         92.9633          0.94589         92.9633         0.324488         172.193
77.205                  0.324639        -166.377         0.945838         92.6854         0.945838         92.6854          0.32464         171.747
77.24                    0.32479        -166.487         0.945786         92.4075         0.945786         92.4075          0.32479         171.301
77.275                  0.324939        -166.596         0.945735         92.1297         0.945735         92.1297          0.32494         170.855
77.31                   0.325087        -166.706         0.945684         91.8518         0.945684         91.8518         0.325088         170.409
77.345                  0.325233        -166.816         0.945634         91.5739         0.945634         91.5739         0.325235         169.963
77.38                   0.325379        -166.926         0.945584         91.2961         0.945584         91.2961          0.32538         169.517
77.415                  0.325523        -167.035         0.945535         91.0183         0.945535         91.0183         0.325525         169.071
77.45                   0.325666        -167.145         0.945485         90.7405         0.945485         90.7405         0.325668         168.625
77.485                  0.325808        -167.255         0.945437         90.4626         0.945437         90.4626          0.32581         168.179
77.52                   0.325948        -167.365         0.945388         90.1849         0.945388         90.1849          0.32595         167.733
77.555                  0.326087        -167.474          0.94534         89.9071          0.94534         89.9071          0.32609         167.287
77.59                   0.326225        -167.584         0.945293         89.6293         0.945293         89.6293         0.326228         166.841
77.625                  0.326362        -167.694         0.945246         89.3515         0.945246         89.3515         0.326365         166.395
77.66                   0.326498        -167.803         0.945199         89.0738         0.945199         89.0738           0.3265         165.949
77.695                  0.326632        -167.913         0.945152          88.796         0.945152          88.796         0.326635         165.503
77.73                   0.326765        -168.023         0.945107         88.5183         0.945107         88.5183         0.326768         165.057
77.765                  0.326897        -168.132         0.945061         88.2406         0.945061         88.2406           0.3269         164.611
77.8                    0.327027        -168.242         0.945016         87.9629         0.945016         87.9629         0.327031         164.165
77.835                  0.327157        -168.351         0.944971         87.6852         0.944971         87.6852          0.32716         163.719
77.87                   0.327285        -168.461         0.944927         87.4075         0.944927         87.4075         0.327288         163.273
77.905                  0.327412        -168.571         0.944883         87.1298         0.944883         87.1298         0.327415         162.827
77.94                   0.327537         -168.68         0.944839         86.8522         0.944839         86.8522         0.327541         162.381
77.975                  0.327661         -168.79         0.944796         86.5745         0.944796         86.5745         0.327665         161.935
78.01                   0.327785        -168.899         0.944754         86.2969         0.944754         86.2969         0.327789          161.49
78.045                  0.327906        -169.009         0.944711         86.0192         0.944711         86.0192          0.32791         161.044
78.08                   0.328027        -169.118         0.944669         85.7416         0.944669         85.7416         0.328031         160.598
78.115                  0.328147        -169.228         0.944628          85.464         0.944628          85.464         0.328151         160.152
78.15                   0.328265        -169.337         0.944587         85.1864         0.944587         85.1864         0.328269         159.706
78.185                  0.328382        -169.447         0.944546         84.9088         0.944546         84.9088         0.328386         159.261
78.22                   0.328497        -169.556         0.944506         84.6312         0.944506         84.6312         0.328502         158.815
78.255                  0.328612        -169.666         0.944466         84.3536         0.944466         84.3536         0.328616         158.369
78.29                   0.328725        -169.775         0.944427         84.0761         0.944427         84.0761         0.328729         157.923
78.325                  0.328837        -169.885         0.944388         83.7985         0.944388         83.7985         0.328841         157.478
78.36                   0.328948        -169.994          0.94435          83.521          0.94435          83.521         0.328952         157.032
78.395                  0.329057        -170.104         0.944311         83.2434         0.944311         83.2434         0.329062         156.586
78.43                   0.329165        -170.213         0.944274         82.9659         0.944274         82.9659          0.32917         156.141
78.465                  0.329272        -170.322         0.944236         82.6884         0.944236         82.6884         0.329277         155.695
78.5                    0.329378        -170.432         0.944199         82.4109         0.944199         82.4109         0.329383         155.249
78.535                  0.329483        -170.541         0.944163         82.1333         0.944163         82.1333         0.329487         154.804
78.57                   0.329586        -170.651         0.944127         81.8558         0.944127         81.8558         0.329591         154.358
78.605                  0.329688         -170.76         0.944091         81.5784         0.944091         81.5784         0.329693         153.912
78.64                   0.329789        -170.869         0.944056         81.3009         0.944056         81.3009         0.329793         153.467
78.675                  0.329888        -170.979         0.944021         81.0234         0.944021         81.0234         0.329893         153.021
78.71                   0.329987        -171.088         0.943987         80.7459         0.943987         80.7459         0.329991         152.575
78.745                  0.330084        -171.197         0.943953         80.4685         0.943953         80.4685         0.330088          152.13
78.78                    0.33018        -171.307          0.94392          80.191          0.94392          80.191         0.330184         151.684
78.815                  0.330274        -171.416         0.943886         79.9136         0.943886         79.9136         0.330279         151.239
78.85                   0.330368        -171.525         0.943854         79.6362         0.943854         79.6362         0.330372         150.793
78.885                   0.33046        -171.635         0.943822         79.3587         0.943822         79.3587         0.330464         150.348
78.92                   0.330551        -171.744          0.94379         79.0813          0.94379         79.0813         0.330555         149.902
78.955                   0.33064        -171.853         0.943758         78.8039         0.943758         78.8039         0.330644         149.457
78.99                   0.330729        -171.963         0.943727         78.5265         0.943727         78.5265         0.330733         149.011
79.025                  0.330816        -172.072         0.943697         78.2491         0.943697         78.2491          0.33082         148.566
79.06                   0.330902        -172.181         0.943667         77.9717         0.943667         77.9717         0.330906          148.12
79.095                  0.330986         -172.29         0.943637         77.6943         0.943637         77.6943          0.33099         147.675
79.13                    0.33107          -172.4         0.943608          77.417         0.943608          77.417         0.331074         147.229
79.165                  0.331152        -172.509         0.943579         77.1396         0.943579         77.1396         0.331156         146.784
79.2                    0.331233        -172.618          0.94355         76.8622          0.94355         76.8622         0.331237         146.338
79.235                  0.331313        -172.727         0.943522         76.5849         0.943522         76.5849         0.331316         145.893
79.27                   0.331391        -172.837         0.943495         76.3075         0.943495         76.3075         0.331395         145.447
79.305                  0.331468        -172.946         0.943468         76.0302         0.943468         76.0302         0.331472         145.002
79.34                   0.331544        -173.055         0.943441         75.7528         0.943441         75.7528         0.331548         144.557
79.375                  0.331619        -173.164         0.943415         75.4755         0.943415         75.4755         0.331623         144.111
79.41                   0.331693        -173.273         0.943389         75.1982         0.943389         75.1982         0.331696         143.666
79.445                  0.331765        -173.383         0.943363         74.9209         0.943363         74.9209         0.331768          143.22
79.48                   0.331836        -173.492         0.943338         74.6435         0.943338         74.6435         0.331839         142.775
79.515                  0.331906        -173.601         0.943314         74.3662         0.943314         74.3662         0.331909          142.33
79.55                   0.331974         -173.71          0.94329         74.0889          0.94329         74.0889         0.331977         141.884
79.585                  0.332042        -173.819         0.943266         73.8116         0.943266         73.8116         0.332044         141.439
79.62                   0.332108        -173.929         0.943243         73.5344         0.943243         73.5344          0.33211         140.994
79.655                  0.332173        -174.038          0.94322         73.2571          0.94322         73.2571         0.332175         140.548
79.69                   0.332236        -174.147         0.943197         72.9798         0.943197         72.9798         0.332239         140.103
79.725                  0.332298        -174.256         0.943175         72.7025         0.943175         72.7025         0.332301         139.658
79.76                    0.33236        -174.365         0.943154         72.4252         0.943154         72.4252         0.332362         139.212
79.795                  0.332419        -174.474         0.943133          72.148         0.943133          72.148         0.332422         138.767
79.83                   0.332478        -174.583         0.943112         71.8707         0.943112         71.8707          0.33248         138.322
79.865                  0.332535        -174.692         0.943092         71.5935         0.943092         71.5935         0.332538         137.876
79.9                    0.332592        -174.802         0.943072         71.3162         0.943072         71.3162         0.332594         137.431
79.935                  0.332647        -174.911         0.943052          71.039         0.943052          71.039         0.332648         136.986
79.97                     0.3327         -175.02         0.943033         70.7617         0.943033         70.7617         0.332702         136.541
80.005                  0.332753        -175.129         0.943015         70.4845         0.943015         70.4845         0.332754         136.095
80.04                   0.332804        -175.238         0.942997         70.2073         0.942997         70.2073         0.332805          135.65
80.075                  0.332854        -175.347         0.942979           69.93         0.942979           69.93         0.332855         135.205
80.11                   0.332902        -175.456         0.942962         69.6528         0.942962         69.6528         0.332904          134.76
80.145                   0.33295        -175.565         0.942945         69.3756         0.942945         69.3756         0.332951         134.314
80.18                   0.332996        -175.674         0.942929         69.0984         0.942929         69.0984         0.332997         133.869
80.215                  0.333041        -175.783         0.942913         68.8212         0.942913         68.8212         0.333042         133.424
80.25                   0.333085        -175.892         0.942897          68.544         0.942897          68.544         0.333086         132.979
80.285                  0.333127        -176.001         0.942882         68.2668         0.942882         68.2668         0.333128         132.533
80.32                   0.333169         -176.11         0.942868         67.9896         0.942868         67.9896          0.33317         132.088
80.355                  0.333209         -176.22         0.942853         67.7124         0.942853         67.7124         0.333209         131.643
80.39                   0.333247        -176.329          0.94284         67.4352          0.94284         67.4352         0.333248         131.198
80.425                  0.333285        -176.438         0.942826          67.158         0.942826          67.158         0.333286         130.752
80.46                   0.333321        -176.547         0.942814         66.8808         0.942814         66.8808         0.333322         130.307
80.495                  0.333356        -176.656         0.942801         66.6036         0.942801         66.6036         0.333357         129.862
80.53                    0.33339        -176.765         0.942789         66.3264         0.942789         66.3264         0.333391         129.417
80.565                  0.333423        -176.874         0.942778         66.0492         0.942778         66.0492         0.333423         128.972
80.6                    0.333454        -176.983         0.942766         65.7721         0.942766         65.7721         0.333454         128.526
80.635                  0.333484        -177.092         0.942756         65.4949         0.942756         65.4949         0.333484         128.081
80.67                   0.333513        -177.201         0.942745         65.2177         0.942745         65.2177         0.333513         127.636
80.705                  0.333541         -177.31         0.942736         64.9406         0.942736         64.9406         0.333541         127.191
80.74                   0.333567        -177.419         0.942726         64.6634         0.942726         64.6634         0.333567         126.746
80.775                  0.333592        -177.528         0.942717         64.3862         0.942717         64.3862         0.333592         126.301
80.81                   0.333616        -177.637         0.942709         64.1091         0.942709         64.1091         0.333616         125.855
80.845                  0.333639        -177.746         0.942701         63.8319         0.942701         63.8319         0.333639          125.41
80.88                   0.333661        -177.855         0.942693         63.5548         0.942693         63.5548          0.33366         124.965
80.915                  0.333681        -177.964         0.942686         63.2776         0.942686         63.2776          0.33368          124.52
80.95                     0.3337        -178.073         0.942679         63.0005         0.942679         63.0005         0.333699         124.075
80.985                  0.333717        -178.182         0.942673         62.7233         0.942673         62.7233         0.333717         123.629
81.02                   0.333734        -178.291         0.942667         62.4462         0.942667         62.4462         0.333733         123.184
81.055                  0.333749          -178.4         0.942662          62.169         0.942662          62.169         0.333749         122.739
81.09                   0.333763        -178.509         0.942657         61.8919         0.942657         61.8919         0.333763         122.294
81.125                  0.333776        -178.618         0.942652         61.6147         0.942652         61.6147         0.333775         121.849
81.16                   0.333788        -178.727         0.942648         61.3376         0.942648         61.3376         0.333787         121.404
81.195                  0.333798        -178.836         0.942644         61.0604         0.942644         61.0604         0.333797         120.958
81.23                   0.333807        -178.945         0.942641         60.7833         0.942641         60.7833         0.333806         120.513
81.265                  0.333815        -179.054         0.942638         60.5061         0.942638         60.5061         0.333814         120.068
81.3                    0.333821        -179.163         0.942636          60.229         0.942636          60.229         0.333821         119.623
81.335                  0.333827        -179.271         0.942634         59.9519         0.942634         59.9519         0.333826         119.178
81.37                   0.333831         -179.38         0.942632         59.6747         0.942632         59.6747          0.33383         118.733
81.405                  0.333834        -179.489         0.942631         59.3976         0.942631         59.3976         0.333833         118.287
81.44                   0.333836        -179.598         0.942631         59.1205         0.942631         59.1205         0.333835         117.842
81.475                  0.333836        -179.707          0.94263         58.8433          0.94263         58.8433         0.333835         117.397
81.51                   0.333835        -179.816         0.942631         58.5662         0.942631         58.5662         0.333834         116.952
81.545                  0.333833        -179.925         0.942631         58.2891         0.942631         58.2891         0.333832         116.507
81.58                    0.33383         179.966         0.942632         58.0119         0.942632         58.0119         0.333829         116.061
81.615                  0.333825         179.857         0.942634         57.7348         0.942634         57.7348         0.333824         115.616
81.65                    0.33382         179.748         0.942636         57.4576         0.942636         57.4576         0.333819         115.171
81.685                  0.333813         179.639         0.942638         57.1805         0.942638         57.1805         0.333812         114.726
81.72                   0.333804          179.53         0.942641         56.9034         0.942641         56.9034         0.333804         114.281
81.755                  0.333795         179.421         0.942645         56.6262         0.942645         56.6262         0.333794         113.835
81.79                   0.333784         179.312         0.942648         56.3491         0.942648         56.3491         0.333783          113.39
81.825                  0.333772         179.203         0.942653          56.072         0.942653          56.072         0.333772         112.945
81.86                   0.333759         179.094         0.942657         55.7948         0.942657         55.7948         0.333758           112.5
81.895                  0.333745         178.985         0.942662         55.5177         0.942662         55.5177         0.333744         112.055