! TOUCHSTONE file generated by CST MICROWAVE STUDIO
! Date and time: Fri Feb  2 18:50:58 2024
! Project name: material_prueba.cst
! Header version: 2018
! Port assignment regex: !\s*Touchstone port\s*([0-9]+)\s*=\s*(CST MWS port|CST DS port)\s*([0-9]+|Zmin|Zmax)\s*\(\"(.*)\"\)(\s*mode\s*([0-9]+))?.*
! Touchstone port assignment:
! Touchstone port 1 = CST MWS port 1 ("")
! Touchstone port 2 = CST MWS port 2 ("")
# GHz S MA R 376.7
50                     0.0873394        -15.2039         0.996178          74.811         0.996162         74.8132        0.0874005        -15.1634
50.007                 0.0872035        -15.2955         0.996191         74.7194         0.996176         74.7216         0.087264        -15.2553
50.014                 0.0870676         -15.387         0.996204         74.6279         0.996189         74.6301        0.0871274        -15.3472
50.021                 0.0869316        -15.4786         0.996217         74.5363         0.996202         74.5385        0.0869909        -15.4391
50.028                 0.0867957        -15.5702         0.996231         74.4448         0.996216          74.447        0.0868543         -15.531
50.035                 0.0866597        -15.6617         0.996244         74.3532         0.996229         74.3554        0.0867176         -15.623
50.042                 0.0865236        -15.7533         0.996257         74.2617         0.996243         74.2639         0.086581        -15.7149
50.049                 0.0863876        -15.8449          0.99627         74.1701         0.996256         74.1723        0.0864443        -15.8068
50.056                 0.0862515        -15.9364         0.996283         74.0785         0.996269         74.0807        0.0863076        -15.8987
50.063                 0.0861153         -16.028         0.996296          73.987         0.996283         73.9892        0.0861708        -15.9906
50.07                  0.0859792        -16.1196         0.996309         73.8954         0.996296         73.8976        0.0860341        -16.0826
50.077                 0.0858429        -16.2111         0.996322         73.8038         0.996309          73.806        0.0858973        -16.1745
50.084                 0.0857067        -16.3027         0.996335         73.7123         0.996322         73.7144        0.0857604        -16.2664
50.091                 0.0855705        -16.3943         0.996348         73.6207         0.996335         73.6229        0.0856236        -16.3583
50.098                 0.0854342        -16.4859         0.996361         73.5291         0.996348         73.5313        0.0854867        -16.4502
50.105                 0.0852978        -16.5774         0.996373         73.4375         0.996361         73.4397        0.0853498        -16.5422
50.112                 0.0851615         -16.669         0.996386          73.346         0.996374         73.3481        0.0852128        -16.6341
50.119                 0.0850251        -16.7606         0.996399         73.2544         0.996387         73.2565        0.0850759         -16.726
50.126                 0.0848887        -16.8522         0.996412         73.1628           0.9964         73.1649        0.0849389        -16.8179
50.133                 0.0847522        -16.9438         0.996424         73.0712         0.996413         73.0733        0.0848019        -16.9098
50.14                  0.0846157        -17.0354         0.996437         72.9796         0.996426         72.9817        0.0846648        -17.0018
50.147                 0.0844792        -17.1269          0.99645          72.888         0.996439         72.8902        0.0845277        -17.0937
50.154                 0.0843427        -17.2185         0.996462         72.7964         0.996452         72.7986        0.0843906        -17.1856
50.161                 0.0842061        -17.3101         0.996475         72.7048         0.996465          72.707        0.0842535        -17.2775
50.168                 0.0840695        -17.4017         0.996487         72.6132         0.996477         72.6154        0.0841164        -17.3694
50.175                 0.0839328        -17.4933           0.9965         72.5216          0.99649         72.5237        0.0839792        -17.4613
50.182                 0.0837962        -17.5849         0.996512           72.43         0.996503         72.4321         0.083842        -17.5532
50.189                 0.0836595        -17.6765         0.996525         72.3384         0.996515         72.3405        0.0837047        -17.6452
50.196                 0.0835228        -17.7681         0.996537         72.2468         0.996528         72.2489        0.0835675        -17.7371
50.203                  0.083386        -17.8597          0.99655         72.1552         0.996541         72.1573        0.0834302         -17.829
50.21                  0.0832492        -17.9513         0.996562         72.0636         0.996553         72.0657        0.0832929        -17.9209
50.217                 0.0831124        -18.0429         0.996574          71.972         0.996566         71.9741        0.0831555        -18.0128
50.224                 0.0829756        -18.1345         0.996587         71.8804         0.996578         71.8825        0.0830182        -18.1047
50.231                 0.0828387        -18.2261         0.996599         71.7888         0.996591         71.7908        0.0828808        -18.1966
50.238                 0.0827018        -18.3177         0.996611         71.6972         0.996603         71.6992        0.0827434        -18.2885
50.245                 0.0825649        -18.4093         0.996623         71.6055         0.996616         71.6076        0.0826059        -18.3804
50.252                 0.0824279        -18.5009         0.996635         71.5139         0.996628          71.516        0.0824685        -18.4723
50.259                 0.0822909        -18.5925         0.996647         71.4223          0.99664         71.4243         0.082331        -18.5643
50.266                 0.0821539        -18.6841          0.99666         71.3307         0.996653         71.3327        0.0821935        -18.6562
50.273                 0.0820168        -18.7757         0.996672          71.239         0.996665         71.2411        0.0820559        -18.7481
50.28                  0.0818798        -18.8673         0.996684         71.1474         0.996677         71.1494        0.0819184          -18.84
50.287                 0.0817427        -18.9589         0.996696         71.0558         0.996689         71.0578        0.0817808        -18.9319
50.294                 0.0816056        -19.0505         0.996708         70.9641         0.996701         70.9662        0.0816432        -19.0238
50.301                 0.0814684        -19.1421          0.99672         70.8725         0.996714         70.8745        0.0815055        -19.1157
50.308                 0.0813312        -19.2338         0.996731         70.7809         0.996726         70.7829        0.0813679        -19.2076
50.315                  0.081194        -19.3254         0.996743         70.6892         0.996738         70.6913        0.0812302        -19.2995
50.322                 0.0810568         -19.417         0.996755         70.5976          0.99675         70.5996        0.0810925        -19.3914
50.329                 0.0809195        -19.5086         0.996767          70.506         0.996762          70.508        0.0809547        -19.4833
50.336                 0.0807822        -19.6002         0.996779         70.4143         0.996774         70.4163         0.080817        -19.5752
50.343                 0.0806449        -19.6918         0.996791         70.3227         0.996786         70.3247        0.0806792        -19.6671
50.35                  0.0805076        -19.7834         0.996802          70.231         0.996798          70.233        0.0805414         -19.759
50.357                 0.0803702        -19.8751         0.996814         70.1394         0.996809         70.1414        0.0804036        -19.8509
50.364                 0.0802328        -19.9667         0.996826         70.0477         0.996821         70.0497        0.0802657        -19.9428
50.371                 0.0800954        -20.0583         0.996837         69.9561         0.996833          69.958        0.0801279        -20.0347
50.378                 0.0799579        -20.1499         0.996849         69.8644         0.996845         69.8664          0.07999        -20.1266
50.385                 0.0798204        -20.2415          0.99686         69.7728         0.996857         69.7747         0.079852        -20.2184
50.392                 0.0796829        -20.3331         0.996872         69.6811         0.996868         69.6831        0.0797141        -20.3103
50.399                 0.0795454        -20.4248         0.996883         69.5894          0.99688         69.5914        0.0795761        -20.4022
50.406                 0.0794079        -20.5164         0.996895         69.4978         0.996892         69.4997        0.0794382        -20.4941
50.413                 0.0792703         -20.608         0.996906         69.4061         0.996903         69.4081        0.0793002         -20.586
50.42                  0.0791327        -20.6996         0.996918         69.3145         0.996915         69.3164        0.0791621        -20.6779
50.427                  0.078995        -20.7913         0.996929         69.2228         0.996927         69.2247        0.0790241        -20.7698
50.434                 0.0788574        -20.8829          0.99694         69.1311         0.996938         69.1331         0.078886        -20.8617
50.441                 0.0787197        -20.9745         0.996952         69.0395          0.99695         69.0414        0.0787479        -20.9535
50.448                  0.078582        -21.0661         0.996963         68.9478         0.996961         68.9497        0.0786098        -21.0454
50.455                 0.0784443        -21.1577         0.996974         68.8561         0.996973          68.858        0.0784717        -21.1373
50.462                 0.0783065        -21.2494         0.996986         68.7644         0.996984         68.7663        0.0783335        -21.2292
50.469                 0.0781688         -21.341         0.996997         68.6728         0.996995         68.6747        0.0781953        -21.3211
50.476                 0.0780309        -21.4326         0.997008         68.5811         0.997007          68.583        0.0780571         -21.413
50.483                 0.0778931        -21.5243         0.997019         68.4894         0.997018         68.4913        0.0779189        -21.5048
50.49                  0.0777553        -21.6159          0.99703         68.3977         0.997029         68.3996        0.0777807        -21.5967
50.497                 0.0776174        -21.7075         0.997041         68.3061         0.997041         68.3079        0.0776424        -21.6886
50.504                 0.0774795        -21.7991         0.997052         68.2144         0.997052         68.2162        0.0775041        -21.7805
50.511                 0.0773416        -21.8908         0.997063         68.1227         0.997063         68.1246        0.0773658        -21.8723
50.518                 0.0772036        -21.9824         0.997074          68.031         0.997074         68.0329        0.0772275        -21.9642
50.525                 0.0770657         -22.074         0.997085         67.9393         0.997085         67.9412        0.0770892        -22.0561
50.532                 0.0769277        -22.1656         0.997096         67.8476         0.997096         67.8495        0.0769508        -22.1479
50.539                 0.0767897        -22.2573         0.997107         67.7559         0.997107         67.7578        0.0768124        -22.2398
50.546                 0.0766516        -22.3489         0.997118         67.6642         0.997118         67.6661         0.076674        -22.3317
50.553                 0.0765136        -22.4405         0.997129         67.5725          0.99713         67.5744        0.0765356        -22.4235
50.56                  0.0763755        -22.5322          0.99714         67.4809          0.99714         67.4827        0.0763971        -22.5154
50.567                 0.0762374        -22.6238         0.997151         67.3892         0.997151          67.391        0.0762587        -22.6073
50.574                 0.0760992        -22.7154         0.997161         67.2975         0.997162         67.2993        0.0761202        -22.6991
50.581                 0.0759611         -22.807         0.997172         67.2058         0.997173         67.2076        0.0759817         -22.791
50.588                 0.0758229        -22.8987         0.997183         67.1141         0.997184         67.1159        0.0758432        -22.8828
50.595                 0.0756847        -22.9903         0.997194         67.0224         0.997195         67.0242        0.0757046        -22.9747
50.602                 0.0755465        -23.0819         0.997204         66.9307         0.997206         66.9325        0.0755661        -23.0666
50.609                 0.0754083        -23.1736         0.997215          66.839         0.997217         66.8407        0.0754275        -23.1584
50.616                   0.07527        -23.2652         0.997225         66.7473         0.997227          66.749        0.0752889        -23.2503
50.623                 0.0751317        -23.3568         0.997236         66.6555         0.997238         66.6573        0.0751503        -23.3421
50.63                  0.0749934        -23.4485         0.997247         66.5638         0.997249         66.5656        0.0750117         -23.434
50.637                 0.0748551        -23.5401         0.997257         66.4721         0.997259         66.4739         0.074873        -23.5258
50.644                 0.0747167        -23.6317         0.997268         66.3804          0.99727         66.3822        0.0747343        -23.6177
50.651                 0.0745783        -23.7234         0.997278         66.2887         0.997281         66.2905        0.0745956        -23.7095
50.658                   0.07444         -23.815         0.997288          66.197         0.997291         66.1987        0.0744569        -23.8014
50.665                 0.0743015        -23.9066         0.997299         66.1053         0.997302          66.107        0.0743182        -23.8932
50.672                 0.0741631        -23.9982         0.997309         66.0136         0.997312         66.0153        0.0741795        -23.9851
50.679                 0.0740247        -24.0899          0.99732         65.9218         0.997323         65.9236        0.0740407        -24.0769
50.686                 0.0738862        -24.1815          0.99733         65.8301         0.997333         65.8319        0.0739019        -24.1687
50.693                 0.0737477        -24.2731          0.99734         65.7384         0.997344         65.7401        0.0737631        -24.2606
50.7                   0.0736092        -24.3648          0.99735         65.6467         0.997354         65.6484        0.0736243        -24.3524
50.707                 0.0734706        -24.4564         0.997361          65.555         0.997364         65.5567        0.0734855        -24.4442
50.714                 0.0733321         -24.548         0.997371         65.4632         0.997375         65.4649        0.0733466        -24.5361
50.721                 0.0731935        -24.6397         0.997381         65.3715         0.997385         65.3732        0.0732078        -24.6279
50.728                 0.0730549        -24.7313         0.997391         65.2798         0.997395         65.2815        0.0730689        -24.7197
50.735                 0.0729163        -24.8229         0.997401         65.1881         0.997406         65.1898          0.07293        -24.8116
50.742                 0.0727776        -24.9146         0.997411         65.0963         0.997416          65.098        0.0727911        -24.9034
50.749                  0.072639        -25.0062         0.997421         65.0046         0.997426         65.0063        0.0726521        -24.9952
50.756                 0.0725003        -25.0978         0.997431         64.9129         0.997436         64.9146        0.0725132        -25.0871
50.763                 0.0723616        -25.1894         0.997441         64.8211         0.997446         64.8228        0.0723742        -25.1789
50.77                  0.0722229        -25.2811         0.997451         64.7294         0.997456         64.7311        0.0722352        -25.2707
50.777                 0.0720841        -25.3727         0.997461         64.6377         0.997467         64.6393        0.0720962        -25.3625
50.784                 0.0719454        -25.4643         0.997471         64.5459         0.997477         64.5476        0.0719572        -25.4543
50.791                 0.0718066         -25.556         0.997481         64.4542         0.997487         64.4559        0.0718182        -25.5462
50.798                 0.0716678        -25.6476         0.997491         64.3625         0.997497         64.3641        0.0716791         -25.638
50.805                  0.071529        -25.7392         0.997501         64.2707         0.997507         64.2724          0.07154        -25.7298
50.812                 0.0713902        -25.8309         0.997511          64.179         0.997517         64.1806         0.071401        -25.8216
50.819                 0.0712513        -25.9225         0.997521         64.0873         0.997527         64.0889        0.0712619        -25.9134
50.826                 0.0711124        -26.0141          0.99753         63.9955         0.997536         63.9971        0.0711227        -26.0052
50.833                 0.0709736        -26.1057          0.99754         63.9038         0.997546         63.9054        0.0709836         -26.097
50.84                  0.0708347        -26.1974          0.99755          63.812         0.997556         63.8136        0.0708445        -26.1888
50.847                 0.0706957         -26.289         0.997559         63.7203         0.997566         63.7219        0.0707053        -26.2806
50.854                 0.0705568        -26.3806         0.997569         63.6285         0.997576         63.6301        0.0705661        -26.3724
50.861                 0.0704178        -26.4722         0.997579         63.5368         0.997585         63.5384        0.0704269        -26.4642
50.868                 0.0702788        -26.5639         0.997588         63.4451         0.997595         63.4466        0.0702877         -26.556
50.875                 0.0701398        -26.6555         0.997598         63.3533         0.997605         63.3549        0.0701485        -26.6478
50.882                 0.0700008        -26.7471         0.997608         63.2616         0.997615         63.2631        0.0700092        -26.7396
50.889                 0.0698618        -26.8387         0.997617         63.1698         0.997624         63.1714          0.06987        -26.8314
50.896                 0.0697227        -26.9304         0.997627         63.0781         0.997634         63.0796        0.0697307        -26.9232
50.903                 0.0695837         -27.022         0.997636         62.9863         0.997643         62.9879        0.0695914         -27.015
50.91                  0.0694446        -27.1136         0.997645         62.8946         0.997653         62.8961        0.0694521        -27.1068
50.917                 0.0693055        -27.2052         0.997655         62.8028         0.997662         62.8043        0.0693128        -27.1986
50.924                 0.0691664        -27.2969         0.997664          62.711         0.997672         62.7126        0.0691735        -27.2904
50.931                 0.0690272        -27.3885         0.997674         62.6193         0.997681         62.6208        0.0690342        -27.3822
50.938                 0.0688881        -27.4801         0.997683         62.5275         0.997691         62.5291        0.0688948         -27.474
50.945                 0.0687489        -27.5717         0.997692         62.4358           0.9977         62.4373        0.0687554        -27.5657
50.952                 0.0686097        -27.6634         0.997702          62.344          0.99771         62.3455         0.068616        -27.6575
50.959                 0.0684705         -27.755         0.997711         62.2523         0.997719         62.2538        0.0684766        -27.7493
50.966                 0.0683313        -27.8466          0.99772         62.1605         0.997728          62.162        0.0683372        -27.8411
50.973                  0.068192        -27.9382         0.997729         62.0687         0.997738         62.0702        0.0681978        -27.9328
50.98                  0.0680528        -28.0298         0.997738          61.977         0.997747         61.9785        0.0680583        -28.0246
50.987                 0.0679135        -28.1214         0.997748         61.8852         0.997756         61.8867        0.0679189        -28.1164
50.994                 0.0677742        -28.2131         0.997757         61.7934         0.997766         61.7949        0.0677794        -28.2082
51.001                 0.0676349        -28.3047         0.997766         61.7017         0.997775         61.7032        0.0676399        -28.2999
51.008                 0.0674956        -28.3963         0.997775         61.6099         0.997784         61.6114        0.0675004        -28.3917
51.015                 0.0673563        -28.4879         0.997784         61.5182         0.997793         61.5196        0.0673609        -28.4835
51.022                 0.0672169        -28.5795         0.997793         61.4264         0.997802         61.4278        0.0672214        -28.5752
51.029                 0.0670776        -28.6712         0.997802         61.3346         0.997811         61.3361        0.0670819         -28.667
51.036                 0.0669382        -28.7628         0.997811         61.2428          0.99782         61.2443        0.0669423        -28.7587
51.043                 0.0667988        -28.8544          0.99782         61.1511          0.99783         61.1525        0.0668027        -28.8505
51.05                  0.0666594         -28.946         0.997829         61.0593         0.997839         61.0607        0.0666632        -28.9423
51.057                 0.0665199        -29.0376         0.997838         60.9675         0.997848          60.969        0.0665236         -29.034
51.064                 0.0663805        -29.1292         0.997847         60.8758         0.997857         60.8772         0.066384        -29.1258
51.071                  0.066241        -29.2208         0.997856          60.784         0.997866         60.7854        0.0662443        -29.2175
51.078                 0.0661015        -29.3124         0.997864         60.6922         0.997874         60.6936        0.0661047        -29.3093
51.085                  0.065962        -29.4041         0.997873         60.6004         0.997883         60.6018        0.0659651         -29.401
51.092                 0.0658225        -29.4957         0.997882         60.5087         0.997892         60.5101        0.0658254        -29.4928
51.099                  0.065683        -29.5873         0.997891         60.4169         0.997901         60.4183        0.0656857        -29.5845
51.106                 0.0655435        -29.6789           0.9979         60.3251          0.99791         60.3265        0.0655461        -29.6762
51.113                 0.0654039        -29.7705         0.997908         60.2333         0.997919         60.2347        0.0654064         -29.768
51.12                  0.0652644        -29.8621         0.997917         60.1416         0.997927         60.1429        0.0652667        -29.8597
51.127                 0.0651248        -29.9537         0.997926         60.0498         0.997936         60.0512        0.0651269        -29.9515
51.134                 0.0649852        -30.0453         0.997934          59.958         0.997945         59.9594        0.0649872        -30.0432
51.141                 0.0648456        -30.1369         0.997943         59.8662         0.997954         59.8676        0.0648475        -30.1349
51.148                 0.0647059        -30.2285         0.997951         59.7745         0.997962         59.7758        0.0647077        -30.2266
51.155                 0.0645663        -30.3201          0.99796         59.6827         0.997971          59.684        0.0645679        -30.3184
51.162                 0.0644267        -30.4117         0.997969         59.5909          0.99798         59.5922        0.0644282        -30.4101
51.169                  0.064287        -30.5033         0.997977         59.4991         0.997988         59.5004        0.0642884        -30.5018
51.176                 0.0641473        -30.5949         0.997986         59.4073         0.997997         59.4086        0.0641486        -30.5936
51.183                 0.0640076        -30.6865         0.997994         59.3155         0.998005         59.3169        0.0640087        -30.6853
51.19                  0.0638679        -30.7781         0.998002         59.2238         0.998014         59.2251        0.0638689         -30.777
51.197                 0.0637282        -30.8697         0.998011          59.132         0.998022         59.1333        0.0637291        -30.8687
51.204                 0.0635884        -30.9613         0.998019         59.0402         0.998031         59.0415        0.0635892        -30.9604
51.211                 0.0634487        -31.0529         0.998028         58.9484         0.998039         58.9497        0.0634494        -31.0521
51.218                 0.0633089        -31.1445         0.998036         58.8566         0.998048         58.8579        0.0633095        -31.1439
51.225                 0.0631691        -31.2361         0.998044         58.7648         0.998056         58.7661        0.0631696        -31.2356
51.232                 0.0630293        -31.3277         0.998053          58.673         0.998064         58.6743        0.0630297        -31.3273
51.239                 0.0628895        -31.4193         0.998061         58.5813         0.998073         58.5825        0.0628898         -31.419
51.246                 0.0627497        -31.5109         0.998069         58.4895         0.998081         58.4907        0.0627499        -31.5107
51.253                 0.0626099        -31.6025         0.998077         58.3977         0.998089         58.3989        0.0626099        -31.6024
51.26                    0.06247        -31.6941         0.998085         58.3059         0.998098         58.3071          0.06247        -31.6941
51.267                 0.0623302        -31.7857         0.998094         58.2141         0.998106         58.2153          0.06233        -31.7858
51.274                 0.0621903        -31.8773         0.998102         58.1223         0.998114         58.1235        0.0621901        -31.8775
51.281                 0.0620504        -31.9689          0.99811         58.0305         0.998122         58.0317        0.0620501        -31.9692
51.288                 0.0619105        -32.0605         0.998118         57.9387         0.998131         57.9399        0.0619101        -32.0609
51.295                 0.0617706        -32.1521         0.998126         57.8469         0.998139         57.8481        0.0617701        -32.1526
51.302                 0.0616307        -32.2436         0.998134         57.7551         0.998147         57.7563        0.0616301        -32.2443
51.309                 0.0614908        -32.3352         0.998142         57.6633         0.998155         57.6646        0.0614901         -32.336
51.316                 0.0613508        -32.4268          0.99815         57.5715         0.998163         57.5728        0.0613501        -32.4276
51.323                 0.0612109        -32.5184         0.998158         57.4798         0.998171         57.4809          0.06121        -32.5193
51.33                  0.0610709          -32.61         0.998166          57.388         0.998179         57.3891          0.06107         -32.611
51.337                 0.0609309        -32.7016         0.998174         57.2962         0.998187         57.2973        0.0609299        -32.7027
51.344                 0.0607909        -32.7931         0.998182         57.2044         0.998195         57.2055        0.0607899        -32.7944
51.351                 0.0606509        -32.8847          0.99819         57.1126         0.998203         57.1137        0.0606498         -32.886
51.358                 0.0605109        -32.9763         0.998198         57.0208         0.998211         57.0219        0.0605097        -32.9777
51.365                 0.0603708        -33.0679         0.998206          56.929         0.998219         56.9301        0.0603696        -33.0694
51.372                 0.0602308        -33.1595         0.998213         56.8372         0.998227         56.8383        0.0602295        -33.1611
51.379                 0.0600907         -33.251         0.998221         56.7454         0.998235         56.7465        0.0600894        -33.2527