! TOUCHSTONE file generated by CST MICROWAVE STUDIO
! Date and time: Fri Feb 16 12:03:47 2024
! Project name: material_rotado.cst
! Parameters = {angX=1; angY=0.75}
! Header version: 2018
! Port assignment regex: !\s*Touchstone port\s*([0-9]+)\s*=\s*(CST MWS port|CST DS port)\s*([0-9]+|Zmin|Zmax)\s*\(\"(.*)\"\)(\s*mode\s*([0-9]+))?.*
! Touchstone port assignment:
! Touchstone port 1 = CST MWS port 1 ("")
! Touchstone port 2 = CST MWS port 2 ("")
# GHz S MA R 376.7
75                       0.28912         -156.07         0.957293         113.937         0.957293         113.937          0.28912        -156.056
75.035                  0.289532        -156.193         0.957171         113.815         0.957171         113.815         0.289533        -156.178
75.07                   0.289941        -156.315          0.95705         113.694          0.95705         113.694         0.289943        -156.299
75.105                  0.290346        -156.437          0.95693         113.573          0.95693         113.573         0.290348        -156.421
75.14                   0.290748        -156.558          0.95681         113.452          0.95681         113.452          0.29075        -156.542
75.175                  0.291146         -156.68         0.956691         113.331         0.956691         113.331         0.291149        -156.663
75.21                    0.29154        -156.801         0.956572         113.211         0.956572         113.211         0.291543        -156.784
75.245                  0.291931        -156.922         0.956454          113.09         0.956454          113.09         0.291934        -156.904
75.28                   0.292318        -157.042         0.956336          112.97         0.956336          112.97         0.292321        -157.025
75.315                  0.292702        -157.163         0.956219         112.849         0.956219         112.849         0.292705        -157.145
75.35                   0.293082        -157.283         0.956103         112.729         0.956103         112.729         0.293085        -157.265
75.385                  0.293459        -157.403         0.955987         112.609         0.955987         112.609         0.293462        -157.385
75.42                   0.293832        -157.523         0.955872         112.489         0.955872         112.489         0.293835        -157.504
75.455                  0.294202        -157.643         0.955758          112.37         0.955758          112.37         0.294205        -157.624
75.49                   0.294569        -157.763         0.955644          112.25         0.955644          112.25         0.294572        -157.743
75.525                  0.294932        -157.882         0.955531         112.131         0.955531         112.131         0.294935        -157.862
75.56                   0.295292        -158.001         0.955419         112.011         0.955419         112.011         0.295295        -157.981
75.595                  0.295649         -158.12         0.955307         111.892         0.955307         111.892         0.295651          -158.1
75.63                   0.296003        -158.239         0.955196         111.773         0.955196         111.773         0.296005        -158.219
75.665                  0.296353        -158.358         0.955086         111.654         0.955086         111.654         0.296355        -158.337
75.7                      0.2967        -158.477         0.954976         111.535         0.954976         111.535         0.296701        -158.455
75.735                  0.297044        -158.595         0.954868         111.417         0.954868         111.417         0.297045        -158.574
75.77                   0.297385        -158.713          0.95476         111.298          0.95476         111.298         0.297385        -158.692
75.805                  0.297723        -158.832         0.954652         111.179         0.954652         111.179         0.297723         -158.81
75.84                   0.298057         -158.95         0.954546         111.061         0.954546         111.061         0.298057        -158.927
75.875                  0.298389        -159.068          0.95444         110.943          0.95444         110.943         0.298388        -159.045
75.91                   0.298717        -159.185         0.954335         110.825         0.954335         110.825         0.298716        -159.162
75.945                  0.299043        -159.303         0.954231         110.706         0.954231         110.706         0.299041         -159.28
75.98                   0.299365        -159.421         0.954128         110.588         0.954128         110.588         0.299362        -159.397
76.015                  0.299684        -159.538         0.954026         110.471         0.954026         110.471         0.299681        -159.514
76.05                        0.3        -159.656         0.953924         110.353         0.953924         110.353         0.299997        -159.632
76.085                  0.300313        -159.773         0.953823         110.235         0.953823         110.235          0.30031        -159.749
76.12                   0.300623         -159.89         0.953724         110.117         0.953724         110.117         0.300619        -159.865
76.155                   0.30093        -160.007         0.953625             110         0.953625             110         0.300926        -159.982
76.19                   0.301234        -160.124         0.953527         109.882         0.953527         109.882         0.301229        -160.099
76.225                  0.301535        -160.242          0.95343         109.765          0.95343         109.765         0.301529        -160.216
76.26                   0.301833        -160.358         0.953334         109.648         0.953334         109.648         0.301827        -160.332
76.295                  0.302127        -160.475         0.953239          109.53         0.953239          109.53         0.302121        -160.449
76.33                   0.302419        -160.592         0.953145         109.413         0.953145         109.413         0.302412        -160.566
76.365                  0.302707        -160.709         0.953052         109.296         0.953052         109.296           0.3027        -160.682
76.4                    0.302992        -160.826          0.95296         109.179          0.95296         109.179         0.302985        -160.799
76.435                  0.303274        -160.943         0.952869         109.062         0.952869         109.062         0.303266        -160.915
76.47                   0.303552        -161.059          0.95278         108.945          0.95278         108.945         0.303544        -161.031
76.505                  0.303827        -161.176         0.952691         108.828         0.952691         108.828         0.303819        -161.148
76.54                   0.304098        -161.293         0.952604         108.711         0.952604         108.711          0.30409        -161.264
76.575                  0.304365         -161.41         0.952519         108.594         0.952519         108.594         0.304357        -161.381
76.61                   0.304629        -161.527         0.952434         108.477         0.952434         108.477         0.304621        -161.498
76.645                  0.304889        -161.644         0.952351          108.36         0.952351          108.36          0.30488        -161.614
76.68                   0.305144        -161.761          0.95227         108.243          0.95227         108.243         0.305136        -161.731
76.715                  0.305395        -161.878          0.95219         108.126          0.95219         108.126         0.305387        -161.848
76.75                   0.305641        -161.996         0.952113         108.009         0.952113         108.009         0.305633        -161.965
76.785                  0.305881        -162.113         0.952037         107.891         0.952037         107.891         0.305874        -162.082
76.82                   0.306116        -162.231         0.951963         107.774         0.951963         107.774         0.306109          -162.2
76.855                  0.306344        -162.349         0.951892         107.656         0.951892         107.656         0.306337        -162.318
76.89                   0.306564        -162.468         0.951823         107.539         0.951823         107.539         0.306559        -162.436
76.925                  0.306777        -162.587         0.951758         107.421         0.951758         107.421         0.306771        -162.554
76.96                   0.306979        -162.706         0.951696         107.302         0.951696         107.302         0.306974        -162.674
76.995                  0.307168        -162.827         0.951638         107.183         0.951638         107.183         0.307165        -162.793
77.03                   0.307343        -162.948         0.951586         107.064         0.951586         107.064          0.30734        -162.914
77.065                  0.307499         -163.07          0.95154         106.943          0.95154         106.943         0.307497        -163.036
77.1                    0.307629        -163.194         0.951502         106.822         0.951502         106.822         0.307628        -163.159
77.135                  0.307725        -163.319         0.951475         106.698         0.951475         106.698         0.307725        -163.284
77.17                   0.307771        -163.447         0.951465         106.573         0.951465         106.573         0.307772        -163.411
77.205                  0.307741        -163.579         0.951478         106.443         0.951478         106.443         0.307743        -163.542
77.24                   0.307585        -163.716         0.951529         106.308         0.951529         106.308         0.307586        -163.677
77.275                  0.307196        -163.858         0.951646         106.163         0.951646         106.163         0.307196        -163.817
77.31                   0.306332        -163.993         0.951882         106.004         0.951882         106.004         0.306327        -163.944
77.345                  0.304898        -163.938          0.95214         105.878          0.95214         105.878         0.304897        -163.863
77.38                    0.31633        -163.674         0.948649         106.338         0.948649         106.338          0.31633         -163.65
77.415                  0.317492        -163.724         0.948261         106.283         0.948261         106.283         0.317492         -163.71
77.45                   0.314788        -163.995         0.949145         106.002         0.949145         106.002         0.314788        -163.973
77.485                  0.313719        -164.206         0.949516         105.806         0.949516         105.806         0.313719        -164.182
77.52                   0.313226        -164.375         0.949689         105.648         0.949689         105.648         0.313225         -164.35
77.555                  0.312976        -164.524         0.949777         105.507         0.949777         105.507         0.312972        -164.498
77.59                   0.312844        -164.661          0.94982         105.374          0.94982         105.374         0.312838        -164.634
77.625                  0.312777        -164.789          0.94984         105.247          0.94984         105.247         0.312769        -164.761
77.66                   0.312748        -164.911         0.949844         105.124         0.949844         105.124         0.312738        -164.881
77.695                  0.312744        -165.026          0.94984         105.002          0.94984         105.002         0.312737        -164.994
77.73                   0.312764        -165.134         0.949831         104.882         0.949831         104.882         0.312764        -165.101
77.765                   0.31281        -165.236         0.949818         104.764         0.949818         104.764         0.312821        -165.203
77.8                    0.312888        -165.334         0.949804         104.646         0.949804         104.646         0.312911          -165.3
77.835                     0.313        -165.428         0.949789          104.53         0.949789          104.53         0.313034        -165.396
77.87                   0.313147        -165.522         0.949775         104.413         0.949775         104.413         0.313189        -165.492
77.905                  0.313325        -165.616         0.949761         104.298         0.949761         104.298         0.313369        -165.588
77.94                   0.313527        -165.712         0.949749         104.183         0.949749         104.183         0.313568        -165.687
77.975                  0.313745        -165.811         0.949738         104.068         0.949738         104.068          0.31378        -165.788
78.01                   0.313973        -165.913         0.949728         103.954         0.949728         103.954         0.313998        -165.891
78.045                  0.314204        -166.018         0.949721          103.84         0.949721          103.84         0.314218        -165.997
78.08                   0.314434        -166.125         0.949716         103.727         0.949716         103.727         0.314438        -166.104
78.115                  0.314662        -166.233         0.949712         103.614         0.949712         103.614         0.314657        -166.212
78.15                   0.314887        -166.343         0.949711         103.501         0.949711         103.501         0.314872        -166.322
78.185                  0.315106        -166.455         0.949711         103.389         0.949711         103.389         0.315084        -166.433
78.22                   0.315321        -166.566         0.949712         103.278         0.949712         103.278         0.315292        -166.544
78.255                  0.315531        -166.679         0.949714         103.167         0.949714         103.167         0.315496        -166.656
78.29                   0.315736        -166.792         0.949716         103.056         0.949716         103.056         0.315697        -166.768
78.325                  0.315937        -166.905         0.949718         102.946         0.949718         102.946         0.315894         -166.88
78.36                   0.316134        -167.018         0.949719         102.836         0.949719         102.836         0.316089        -166.992
78.395                  0.316327        -167.132         0.949717         102.727         0.949717         102.727          0.31628        -167.105
78.43                   0.316517        -167.245         0.949713         102.618         0.949713         102.618         0.316468        -167.217
78.465                  0.316704        -167.359         0.949704          102.51         0.949704          102.51         0.316653         -167.33
78.5                    0.316887        -167.472         0.949691         102.403         0.949691         102.403         0.316836        -167.443
78.535                  0.317068        -167.586         0.949671         102.296         0.949671         102.296         0.317016        -167.555
78.57                   0.317246        -167.699         0.949644         102.189         0.949644         102.189         0.317194        -167.668
78.605                  0.317422        -167.813         0.949608         102.082         0.949608         102.082          0.31737        -167.781
78.64                   0.317595        -167.926         0.949564         101.976         0.949564         101.976         0.317544        -167.894
78.675                  0.317767        -168.039         0.949511          101.87         0.949511          101.87         0.317716        -168.006
78.71                   0.317936        -168.153         0.949448         101.764         0.949448         101.764         0.317885        -168.119
78.745                  0.318103        -168.266         0.949376         101.658         0.949376         101.658         0.318053        -168.232
78.78                   0.318268        -168.379         0.949295         101.552         0.949295         101.552         0.318219        -168.344
78.815                  0.318431        -168.492         0.949206         101.445         0.949206         101.445         0.318384        -168.457
78.85                   0.318593        -168.606         0.949108         101.339         0.949108         101.339         0.318547        -168.569
78.885                  0.318753        -168.719         0.949004         101.232         0.949004         101.232         0.318708        -168.682
78.92                   0.318911        -168.832         0.948894         101.125         0.948894         101.125         0.318868        -168.795
78.955                  0.319068        -168.945          0.94878         101.018          0.94878         101.018         0.319026        -168.907
78.99                   0.319223        -169.058         0.948662          100.91         0.948662          100.91         0.319183         -169.02
79.025                  0.319377        -169.171         0.948542         100.801         0.948542         100.801         0.319339        -169.132
79.06                   0.319529        -169.284          0.94842         100.693          0.94842         100.693         0.319493        -169.245
79.095                  0.319681        -169.397         0.948298         100.584         0.948298         100.584         0.319646        -169.358
79.13                    0.31983         -169.51         0.948176         100.475         0.948176         100.475         0.319798         -169.47
79.165                  0.319979        -169.623         0.948056         100.365         0.948056         100.365         0.319949        -169.583
79.2                    0.320127        -169.736         0.947937         100.255         0.947937         100.255         0.320099        -169.696
79.235                  0.320273         -169.85          0.94782         100.145          0.94782         100.145         0.320248        -169.809
79.27                   0.320419        -169.963         0.947705         100.035         0.947705         100.035         0.320396        -169.921
79.305                  0.320563        -170.076         0.947593         99.9245         0.947593         99.9245         0.320543        -170.034
79.34                   0.320707        -170.189         0.947484          99.814         0.947484          99.814         0.320689        -170.147
79.375                  0.320851        -170.303         0.947378         99.7035         0.947378         99.7035         0.320835         -170.26
79.41                   0.320993        -170.416         0.947274         99.5929         0.947274         99.5929         0.320981        -170.373
79.445                  0.321135         -170.53         0.947174         99.4823         0.947174         99.4823         0.321126        -170.487
79.48                   0.321277        -170.643         0.947076         99.3718         0.947076         99.3718         0.321271          -170.6
79.515                  0.321419        -170.757         0.946981         99.2614         0.946981         99.2614         0.321416        -170.713
79.55                   0.321561        -170.871         0.946889          99.151         0.946889          99.151         0.321561        -170.827
79.585                  0.321703        -170.985         0.946799         99.0408         0.946799         99.0408         0.321706        -170.941
79.62                   0.321846        -171.099         0.946712         98.9308         0.946712         98.9308         0.321853        -171.054
79.655                   0.32199        -171.213         0.946627          98.821         0.946627          98.821            0.322        -171.168
79.69                   0.322135        -171.328         0.946544         98.7114         0.946544         98.7114         0.322149        -171.282
79.725                  0.322282        -171.443         0.946463         98.6021         0.946463         98.6021         0.322299        -171.397
79.76                   0.322431        -171.557         0.946384         98.4931         0.946384         98.4931         0.322452        -171.511
79.795                  0.322583        -171.672         0.946307         98.3844         0.946307         98.3844         0.322609        -171.626
79.83                    0.32274        -171.787         0.946232          98.276         0.946232          98.276         0.322769         -171.74
79.865                  0.322901        -171.903         0.946159          98.168         0.946159          98.168         0.322934        -171.855
79.9                     0.32307        -172.018         0.946088         98.0603         0.946088         98.0603         0.323106        -171.969
79.935                  0.323246        -172.133         0.946019         97.9531         0.946019         97.9531         0.323286        -172.084
79.97                   0.323433        -172.248         0.945953         97.8462         0.945953         97.8462         0.323475        -172.198
80.005                  0.323633        -172.362         0.945889         97.7397         0.945889         97.7397         0.323677        -172.311
80.04                    0.32385        -172.475         0.945829         97.6335         0.945829         97.6335         0.323893        -172.423
80.075                  0.324086        -172.586         0.945771         97.5277         0.945771         97.5277         0.324127        -172.532
80.11                   0.324345        -172.693         0.945718         97.4222         0.945718         97.4222          0.32438        -172.638
80.145                  0.324627        -172.793         0.945669         97.3169         0.945669         97.3169         0.324653        -172.738
80.18                   0.324925        -172.884         0.945625         97.2117         0.945625         97.2117         0.324938        -172.829
80.215                  0.325219        -172.961         0.945586         97.1067         0.945586         97.1067         0.325221        -172.909
80.25                   0.325469        -173.022         0.945553         97.0016         0.945553         97.0016         0.325469        -172.974
80.285                  0.325617        -173.071         0.945525         96.8965         0.945525         96.8965         0.325634        -173.027
80.32                   0.325619        -173.117         0.945504         96.7911         0.945504         96.7911         0.325673        -173.076
80.355                  0.325487        -173.175         0.945488         96.6853         0.945488         96.6853          0.32558        -173.132
80.39                   0.325284        -173.256         0.945478         96.5792         0.945478         96.5792         0.325399        -173.206
80.425                  0.325084        -173.358         0.945472         96.4724         0.945472         96.4724         0.325196        -173.302
80.46                   0.324929        -173.476         0.945471         96.3651         0.945471         96.3651         0.325024        -173.415
80.495                  0.324832        -173.601         0.945472          96.257         0.945472          96.257         0.324905        -173.539
80.53                   0.324787        -173.731         0.945476         96.1482         0.945476         96.1482          0.32484        -173.668
80.565                  0.324784        -173.861         0.945481         96.0385         0.945481         96.0385          0.32482        -173.799
80.6                    0.324812         -173.99         0.945486         95.9281         0.945486         95.9281         0.324835        -173.929
80.635                  0.324863        -174.118         0.945491         95.8168         0.945491         95.8168         0.324878        -174.059
80.67                   0.324931        -174.245         0.945493         95.7047         0.945493         95.7047          0.32494        -174.187
80.705                  0.325011         -174.37         0.945494         95.5919         0.945494         95.5919         0.325017        -174.314
80.74                   0.325102        -174.495         0.945491         95.4783         0.945491         95.4783         0.325105         -174.44
80.775                  0.325201        -174.618         0.945484         95.3639         0.945484         95.3639         0.325202        -174.565
80.81                   0.325306        -174.741         0.945474         95.2489         0.945474         95.2489         0.325307        -174.689
80.845                  0.325418        -174.863         0.945459         95.1332         0.945459         95.1332         0.325418        -174.813
80.88                   0.325535        -174.985          0.94544         95.0168          0.94544         95.0168         0.325536        -174.936
80.915                  0.325658        -175.107         0.945417         94.8998         0.945417         94.8998         0.325659        -175.058
80.95                   0.325786        -175.228         0.945389         94.7822         0.945389         94.7822         0.325787        -175.181
80.985                  0.325921        -175.349         0.945357         94.6639         0.945357         94.6639         0.325922        -175.303
81.02                   0.326062        -175.471          0.94532          94.545          0.94532          94.545         0.326064        -175.425
81.055                  0.326211        -175.592         0.945279         94.4253         0.945279         94.4253         0.326212        -175.547
81.09                   0.326369        -175.714         0.945232         94.3049         0.945232         94.3049          0.32637         -175.67
81.125                  0.326536        -175.837          0.94518         94.1837          0.94518         94.1837         0.326537        -175.793
81.16                   0.326716         -175.96         0.945123         94.0615         0.945123         94.0615         0.326716        -175.917
81.195                  0.326909        -176.084         0.945059         93.9383         0.945059         93.9383         0.326908        -176.041
81.23                   0.327118        -176.209         0.944989         93.8138         0.944989         93.8138         0.327116        -176.167
81.265                  0.327348        -176.335          0.94491         93.6879          0.94491         93.6879         0.327345        -176.293
81.3                    0.327603        -176.463         0.944822         93.5602         0.944822         93.5602         0.327597        -176.422
81.335                  0.327887        -176.593         0.944723         93.4304         0.944723         93.4304          0.32788        -176.552
81.37                    0.32821        -176.726          0.94461          93.298          0.94461          93.298         0.328201        -176.684
81.405                  0.328581        -176.861          0.94448         93.1623          0.94448         93.1623          0.32857         -176.82
81.44                   0.329016        -177.001         0.944327         93.0224         0.944327         93.0224         0.329003        -176.959
81.475                  0.329536        -177.147         0.944144         92.8768         0.944144         92.8768         0.329522        -177.104
81.51                   0.330174          -177.3          0.94392         92.7236          0.94392         92.7236         0.330158        -177.257
81.545                  0.330981        -177.465         0.943635         92.5594         0.943635         92.5594         0.330964         -177.42
81.58                   0.332046        -177.645          0.94326         92.3789          0.94326         92.3789         0.332029        -177.599
81.615                  0.333534        -177.853         0.942735         92.1719         0.942735         92.1719         0.333517        -177.805
81.65                   0.335798         -178.11          0.94193         91.9165          0.94193         91.9165         0.335784        -178.058
81.685                   0.33979        -178.474         0.940499         91.5546         0.940499         91.5546         0.339781        -178.417
81.72                   0.349413        -179.188         0.936969         90.8468         0.936969         90.8468         0.349413        -179.118
81.755                  0.439445         175.032         0.898269         85.1069         0.898269         85.1069         0.439445         175.182
81.79                   0.306867        -176.823         0.951752         93.1792         0.951752         93.1792         0.306867        -176.819
81.825                  0.330479        -178.395         0.943821         91.6234         0.943821         91.6234         0.330504        -178.361
81.86                   0.371789         178.937         0.928317         88.9602         0.928317         88.9602         0.371789         178.983
81.895                  0.257061        -174.257         0.966395         95.7488         0.966395         95.7488         0.257061        -174.246