! TOUCHSTONE file generated by CST MICROWAVE STUDIO
! Date and time: Fri Feb 16 12:03:56 2024
! Project name: material_rotado.cst
! Parameters = {angX=1.75; angY=0.75}
! Header version: 2018
! Port assignment regex: !\s*Touchstone port\s*([0-9]+)\s*=\s*(CST MWS port|CST DS port)\s*([0-9]+|Zmin|Zmax)\s*\(\"(.*)\"\)(\s*mode\s*([0-9]+))?.*
! Touchstone port assignment:
! Touchstone port 1 = CST MWS port 1 ("")
! Touchstone port 2 = CST MWS port 2 ("")
# GHz S MA R 376.7
75                      0.252116         -152.78         0.967697         117.225         0.967697         117.225         0.252116        -152.771
75.035                  0.255148        -153.063         0.966946         116.949         0.966946         116.949         0.255153        -153.055
75.07                   0.257785        -153.322         0.966271         116.694         0.966271         116.694         0.257792        -153.313
75.105                  0.260104         -153.56          0.96566         116.457          0.96566         116.457         0.260112        -153.552
75.14                   0.262165        -153.783         0.965103         116.233         0.965103         116.233         0.262172        -153.775
75.175                  0.264011        -153.993         0.964593         116.022         0.964593         116.022         0.264017        -153.985
75.21                   0.265679        -154.192         0.964124          115.82         0.964124          115.82         0.265683        -154.185
75.245                  0.267195        -154.382          0.96369         115.628          0.96369         115.628         0.267199        -154.375
75.28                   0.268583        -154.565         0.963288         115.443         0.963288         115.443         0.268585        -154.558
75.315                   0.26986        -154.741         0.962915         115.264         0.962915         115.264         0.269861        -154.734
75.35                    0.27104        -154.911         0.962568         115.092         0.962568         115.092          0.27104        -154.905
75.385                  0.272137        -155.077         0.962245         114.924         0.962245         114.924         0.272136        -155.071
75.42                    0.27316        -155.239         0.961943         114.762         0.961943         114.762         0.273159        -155.233
75.455                  0.274117        -155.397         0.961662         114.603         0.961662         114.603         0.274116        -155.391
75.49                   0.275016        -155.552         0.961402         114.448         0.961402         114.448         0.275015        -155.546
75.525                  0.275864        -155.704         0.961159         114.296         0.961159         114.296         0.275862        -155.698
75.56                   0.276664        -155.854         0.960935         114.147         0.960935         114.147         0.276663        -155.848
75.595                  0.277421        -156.001         0.960729             114         0.960729             114         0.277421        -155.995
75.63                    0.27814        -156.147          0.96054         113.856          0.96054         113.856          0.27814        -156.141
75.665                  0.278824        -156.291         0.960369         113.714         0.960369         113.714         0.278825        -156.285
75.7                    0.279475        -156.433         0.960214         113.574         0.960214         113.574         0.279476        -156.427
75.735                  0.280095        -156.574         0.960076         113.436         0.960076         113.436         0.280098        -156.568
75.77                   0.280688        -156.714         0.959954         113.299         0.959954         113.299         0.280691        -156.708
75.805                  0.281253        -156.852         0.959849         113.164         0.959849         113.164         0.281258        -156.846
75.84                   0.281793         -156.99         0.959761         113.031         0.959761         113.031         0.281799        -156.984
75.875                  0.282309        -157.127         0.959688         112.898         0.959688         112.898         0.282316        -157.121
75.91                   0.282802        -157.263          0.95963         112.767          0.95963         112.767          0.28281        -157.257
75.945                  0.283271        -157.399         0.959587         112.637         0.959587         112.637          0.28328        -157.393
75.98                   0.283717        -157.535         0.959556         112.509         0.959556         112.509         0.283727        -157.529
76.015                  0.284138         -157.67         0.959535         112.382         0.959535         112.382          0.28415        -157.664
76.05                   0.284534        -157.805          0.95952         112.256          0.95952         112.256         0.284548        -157.799
76.085                  0.284902         -157.94         0.959504         112.133         0.959504         112.133         0.284917        -157.934
76.12                   0.285237        -158.076         0.959478         112.011         0.959478         112.011         0.285254         -158.07
76.155                  0.285533        -158.212         0.959428         111.891         0.959428         111.891          0.28555        -158.206
76.19                   0.285775        -158.348         0.959341         111.772         0.959341         111.772         0.285793        -158.342
76.225                  0.285938        -158.484         0.959205         111.653         0.959205         111.653         0.285956        -158.478
76.26                   0.285971        -158.616         0.959013         111.534         0.959013         111.534         0.285986         -158.61
76.295                  0.285753        -158.727         0.958773         111.411         0.958773         111.411         0.285758         -158.72
76.33                   0.285077        -158.724         0.958505         111.284         0.958505         111.284         0.285077        -158.707
76.365                  0.285583        -158.308         0.958234         111.152         0.958234         111.152         0.285782        -158.298
76.4                    0.288797        -158.524         0.957987         111.015         0.957987         111.015         0.288776        -158.543
76.435                  0.289271         -158.93          0.95778         110.874          0.95778         110.874         0.289218        -158.927
76.47                   0.289189        -159.188         0.957625         110.727         0.957625         110.727         0.289156        -159.178
76.505                  0.289006        -159.393         0.957531         110.573         0.957531         110.573         0.288988        -159.379
76.54                   0.288698        -159.582         0.957509         110.411         0.957509         110.411          0.28869        -159.565
76.575                  0.288145        -159.776         0.957587         110.233         0.957587         110.233         0.288145        -159.757
76.61                   0.287078        -159.997         0.957832         110.025         0.957832         110.025         0.287085        -159.973
76.645                  0.284729        -160.294         0.958451         109.742         0.958451         109.742         0.284746        -160.261
76.68                   0.277494        -160.895         0.960422         109.172         0.960422         109.172          0.27753        -160.835
76.715                 0.0715751        -174.257         0.997435         97.0035         0.997435         97.0035        0.0715751        -171.736
76.75                    0.31168        -159.042         0.950514         110.903         0.950514         110.903         0.311633        -159.091
76.785                  0.302595        -159.757         0.953237         110.222         0.953237         110.222         0.302575        -159.777
76.82                   0.299905        -160.069         0.954025         109.921         0.954025         109.921         0.299894        -160.079
76.855                  0.298722        -160.285         0.954367          109.71         0.954367          109.71         0.298716        -160.291
76.89                   0.298127        -160.463         0.954539         109.534         0.954539         109.534         0.298124        -160.466
76.925                  0.297819        -160.623         0.954627         109.376         0.954627         109.376         0.297818        -160.624
76.96                   0.297673        -160.772         0.954668         109.228         0.954668         109.228         0.297673        -160.772
76.995                  0.297625        -160.915         0.954681         109.086         0.954681         109.086         0.297626        -160.913
77.03                   0.297641        -161.053         0.954675         108.948         0.954675         108.948         0.297642         -161.05
77.065                  0.297699        -161.188         0.954656         108.814         0.954656         108.814         0.297701        -161.184
77.1                    0.297787         -161.32         0.954629         108.682         0.954629         108.682          0.29779        -161.316
77.135                  0.297896        -161.451         0.954596         108.551         0.954596         108.551         0.297899        -161.446
77.17                    0.29802         -161.58         0.954558         108.422         0.954558         108.422         0.298023        -161.575
77.205                  0.298153        -161.709         0.954517         108.294         0.954517         108.294         0.298156        -161.703
77.24                   0.298294        -161.836         0.954473         108.166         0.954473         108.166         0.298297        -161.831
77.275                  0.298439        -161.963         0.954428         108.039         0.954428         108.039         0.298441        -161.957
77.31                   0.298586         -162.09         0.954383         107.913         0.954383         107.913         0.298588        -162.083
77.345                  0.298734        -162.216         0.954337         107.787         0.954337         107.787         0.298736        -162.209
77.38                   0.298881        -162.342         0.954291         107.661         0.954291         107.661         0.298882        -162.335
77.415                  0.299026        -162.467         0.954245         107.536         0.954245         107.536         0.299027         -162.46
77.45                   0.299168        -162.593         0.954201         107.411         0.954201         107.411         0.299169        -162.585
77.485                  0.299306        -162.718         0.954157         107.285         0.954157         107.285         0.299307        -162.711
77.52                    0.29944        -162.844         0.954115          107.16         0.954115          107.16          0.29944        -162.836
77.555                  0.299567        -162.969         0.954075         107.035         0.954075         107.035         0.299567        -162.961
77.59                   0.299688        -163.095         0.954037         106.909         0.954037         106.909         0.299688        -163.087
77.625                  0.299802        -163.221         0.954001         106.783         0.954001         106.783         0.299802        -163.213
77.66                   0.299907        -163.347         0.953968         106.658         0.953968         106.658         0.299907        -163.338
77.695                  0.300002        -163.473         0.953939         106.531         0.953939         106.531         0.300002        -163.464
77.73                   0.300086          -163.6         0.953912         106.404         0.953912         106.404         0.300086        -163.591
77.765                  0.300157        -163.727          0.95389         106.277          0.95389         106.277         0.300156        -163.717
77.8                    0.300213        -163.855         0.953872         106.149         0.953872         106.149          0.30021        -163.845
77.835                  0.300253        -163.983          0.95386         106.021          0.95386         106.021         0.300247        -163.973
77.87                   0.300273        -164.112         0.953853         105.891         0.953853         105.891         0.300264        -164.102
77.905                   0.30027        -164.242         0.953853          105.76         0.953853          105.76          0.30026        -164.232
77.94                   0.300243        -164.374         0.953861         105.629         0.953861         105.629         0.300232        -164.364
77.975                  0.300187        -164.507         0.953877         105.495         0.953877         105.495         0.300176        -164.497
78.01                   0.300098        -164.642         0.953904          105.36         0.953904          105.36         0.300088        -164.632
78.045                   0.29997        -164.779         0.953943         105.223         0.953943         105.223         0.299962        -164.769
78.08                   0.299798        -164.919         0.953997         105.083         0.953997         105.083         0.299792        -164.909
78.115                  0.299572        -165.063         0.954067          104.94         0.954067          104.94         0.299567        -165.052
78.15                    0.29928         -165.21         0.954159         104.794         0.954159         104.794         0.299276        -165.199
78.185                  0.298906        -165.362         0.954277         104.642         0.954277         104.642         0.298903         -165.35
78.22                   0.298429         -165.52         0.954427         104.485         0.954427         104.485         0.298428        -165.508
78.255                   0.29782        -165.686         0.954618          104.32         0.954618          104.32         0.297819        -165.673
78.29                   0.297037        -165.862         0.954864         104.144         0.954864         104.144         0.297036        -165.849
78.325                  0.296015        -166.053         0.955183         103.955         0.955183         103.955         0.296015        -166.038
78.36                   0.294659        -166.263         0.955605         103.745         0.955605         103.745          0.29466        -166.247
78.395                  0.292809        -166.503         0.956177         103.506         0.956177         103.506          0.29281        -166.486
78.43                   0.290184         -166.79         0.956982         103.221         0.956982         103.221         0.290185         -166.77
78.465                   0.28624        -167.156         0.958176         102.857         0.958176         102.857          0.28624        -167.133
78.5                    0.279757        -167.673         0.960097         102.343         0.960097         102.343         0.279758        -167.646
78.535                  0.267351        -168.544         0.963641         101.477         0.963641         101.477         0.267351        -168.507
78.57                   0.234768        -170.612         0.972127         99.4229         0.972127         99.4229         0.234768        -170.548
78.605                 0.0486641        -6.42206         0.998815         82.9183         0.998815         82.9183        0.0486641        -7.74141
78.64                    0.42688        -159.141          0.90419         110.826          0.90419         110.826          0.42687        -159.176
78.675                  0.360141        -163.435         0.932847         106.555         0.932847         106.555         0.360139        -163.448
78.71                   0.341591        -164.701          0.93982         105.296          0.93982         105.296          0.34159        -164.705
78.745                  0.332923        -165.357         0.942937         104.642         0.942937         104.642         0.332923        -165.357
78.78                   0.327912         -165.79         0.944698         104.211         0.944698         104.211         0.327912        -165.787
78.815                  0.324642        -166.116         0.945832         103.886         0.945832         103.886         0.324642        -166.111
78.85                   0.322328        -166.385         0.946626         103.619         0.946626         103.619         0.322328        -166.378
78.885                  0.320585        -166.618          0.94722         103.386          0.94722         103.386         0.320585        -166.609
78.92                   0.319199        -166.829         0.947689         103.176         0.947689         103.176         0.319199         -166.82
78.955                  0.318037        -167.027         0.948081         102.978         0.948081         102.978         0.318037        -167.016
78.99                   0.317003        -167.218         0.948427         102.789         0.948427         102.789         0.317003        -167.205
79.025                  0.316022        -167.405         0.948754         102.602         0.948754         102.602         0.316022         -167.39
79.06                   0.315016        -167.593         0.949089         102.415         0.949089         102.415         0.315016        -167.577
79.095                  0.313887         -167.79         0.949462          102.22         0.949462          102.22         0.313887        -167.771
79.13                    0.31248        -168.003         0.949925         102.008         0.949925         102.008          0.31248        -167.981
79.165                  0.310492        -168.252         0.950577         101.761         0.950577         101.761         0.310492        -168.226
79.2                    0.307176        -168.583         0.951653         101.434         0.951653         101.434         0.307176        -168.548
79.235                  0.299933        -169.155          0.95396         100.872          0.95396         100.872         0.299933        -169.102
79.27                    0.26869        -171.194         0.963227         98.8775         0.963227         98.8775          0.26869        -171.051
79.305                  0.389744        -163.832         0.920923         106.102         0.920923         106.102         0.389744        -163.964
79.34                   0.338993        -167.128         0.940787         102.853         0.940787         102.853         0.338993        -167.166
79.375                  0.330324        -167.792         0.943865         102.199         0.943865         102.199         0.330324        -167.811
79.41                    0.32674         -168.14         0.945112         101.854         0.945112         101.854          0.32674        -168.151
79.445                   0.32479        -168.388         0.945784         101.609         0.945784         101.609          0.32479        -168.394
79.48                   0.323572        -168.591         0.946201         101.408         0.946201         101.408         0.323572        -168.594
79.515                  0.322748        -168.769         0.946483         101.231         0.946483         101.231         0.322748         -168.77
79.55                   0.322159        -168.933         0.946684         101.068         0.946684         101.068         0.322159        -168.932
79.585                  0.321723        -169.087         0.946833         100.914         0.946833         100.914         0.321723        -169.086
79.62                   0.321389        -169.236         0.946946         100.766         0.946946         100.766         0.321389        -169.233
79.655                  0.321127         -169.38         0.947036         100.622         0.947036         100.622         0.321127        -169.376
79.69                   0.320914        -169.521         0.947109         100.481         0.947109         100.481         0.320914        -169.517
79.725                  0.320733        -169.661         0.947172         100.341         0.947172         100.341         0.320733        -169.656
79.76                   0.320566          -169.8         0.947229         100.203         0.947229         100.203         0.320566        -169.794
79.795                  0.320394         -169.94         0.947289         100.063         0.947289         100.063         0.320394        -169.933
79.83                   0.320185        -170.082         0.947362         99.9215         0.947362         99.9215         0.320185        -170.075
79.865                  0.319875         -170.23         0.947469         99.7732         0.947469         99.7732         0.319875        -170.223
79.9                     0.31929        -170.395         0.947671          99.608         0.947671          99.608          0.31929        -170.388
79.935                  0.317662        -170.623         0.948227           99.38         0.948227           99.38         0.317661        -170.615
79.97                   0.294771        -172.152         0.955568         97.8716         0.955568         97.8716         0.294771        -172.104
80.005                   0.32641        -170.372         0.945197         99.6351         0.945197         99.6351         0.326411        -170.361
80.04                   0.323814        -170.658         0.946111         99.3474         0.946111         99.3474         0.323814        -170.648
80.075                   0.32314        -170.833         0.946347         99.1718         0.946347         99.1718          0.32314        -170.824
80.11                   0.322908        -170.984         0.946429         99.0202         0.946429         99.0202         0.322908        -170.976
80.145                   0.32287        -171.127         0.946443         98.8766         0.946443         98.8766          0.32287        -171.119
80.18                   0.322962        -171.269         0.946412          98.735         0.946412          98.735         0.322962        -171.261
80.215                  0.323193        -171.412         0.946333         98.5908         0.946333         98.5908         0.323193        -171.406
80.25                   0.323665        -171.566          0.94617         98.4359          0.94617         98.4359         0.323665        -171.562
80.285                  0.324909        -171.761          0.94574         98.2375          0.94574         98.2375         0.324909        -171.764
80.32                   0.342622        -172.931         0.939473         97.0368         0.939473         97.0368         0.342622        -172.995
80.355                  0.319289        -171.687         0.947669         98.3286         0.947669         98.3286         0.319286        -171.655
80.39                   0.321223        -171.915         0.947004         98.0945         0.947004         98.0945         0.321223        -171.896
80.425                  0.321923        -172.073          0.94676         97.9347          0.94676         97.9347         0.321925        -172.058
80.46                   0.322369        -172.215         0.946602         97.7912         0.946602         97.7912         0.322375        -172.203
80.495                  0.322738         -172.35          0.94647         97.6537          0.94647         97.6537         0.322751        -172.342
80.53                   0.323092        -172.481         0.946344         97.5189         0.946344         97.5189         0.323121        -172.478
80.565                  0.323469        -172.607         0.946213         97.3854         0.946213         97.3854         0.323533        -172.612
80.6                    0.323898        -172.723         0.946069         97.2524         0.946069         97.2524         0.324045        -172.739
80.635                    0.3244        -172.818         0.945906         97.1198         0.945906         97.1198         0.324768        -172.844
80.67                   0.324914        -172.863         0.945718         96.9875         0.945718         96.9875         0.325828        -172.853
80.705                  0.325057        -172.842         0.945497         96.8559         0.945497         96.8559         0.325953        -172.574
80.74                   0.324436        -172.868         0.945242         96.7256         0.945242         96.7256         0.323473        -172.653
80.775                  0.323849        -173.038         0.944956         96.5976         0.944956         96.5976         0.322997         -173.01
80.81                   0.323754        -173.247         0.944658         96.4733         0.944658         96.4733         0.323284        -173.262
80.845                  0.323926        -173.439         0.944385          96.353         0.944385          96.353         0.323664        -173.456
80.88                   0.324205        -173.614         0.944183         96.2357         0.944183         96.2357         0.324047        -173.625
80.915                  0.324531        -173.777         0.944082         96.1183         0.944082         96.1183         0.324429        -173.783
80.95                   0.324886        -173.934         0.944073          95.997         0.944073          95.997         0.324817        -173.936
80.985                  0.325269        -174.088         0.944117         95.8695         0.944117         95.8695          0.32522        -174.086
81.02                   0.325681        -174.241         0.944173          95.735         0.944173          95.735         0.325645        -174.237
81.055                  0.326129        -174.395         0.944209         95.5939         0.944209         95.5939         0.326102        -174.388
81.09                   0.326622         -174.55          0.94421         95.4467          0.94421         95.4467         0.326601        -174.542
81.125                  0.327169        -174.709         0.944168         95.2935         0.944168         95.2935         0.327153        -174.699
81.16                   0.327786        -174.872         0.944079         95.1341         0.944079         95.1341         0.327773        -174.861
81.195                  0.328491         -175.04         0.943941         94.9676         0.943941         94.9676         0.328481        -175.028
81.23                    0.32931        -175.217         0.943749         94.7924         0.943749         94.7924         0.329302        -175.204
81.265                   0.33028        -175.403         0.943492         94.6063         0.943492         94.6063         0.330274         -175.39
81.3                    0.331455        -175.604         0.943156         94.4058         0.943156         94.4058         0.331451         -175.59
81.335                  0.332918        -175.824         0.942713         94.1854         0.942713         94.1854         0.332915         -175.81
81.37                   0.334803        -176.073         0.942118         93.9366         0.942118         93.9366         0.334801        -176.058
81.405                   0.33734        -176.364          0.94129         93.6445          0.94129         93.6445         0.337339         -176.35
81.44                   0.340973        -176.726         0.940073         93.2808         0.940073         93.2808         0.340973        -176.713
81.475                   0.34667        -177.219         0.938111         92.7845         0.938111         92.7845         0.346671        -177.208
81.51                   0.357118        -178.009         0.934385         91.9863         0.934385         91.9863         0.357121        -178.007
81.545                  0.384493        -179.851         0.923955         90.1149         0.923955         90.1149         0.384499        -179.881
81.58                   0.584721          58.895         0.811234         148.376         0.811234         148.376         0.584721         57.8573
81.615                  0.378696        -179.982         0.925521         90.1546         0.925521         90.1546         0.378696        -179.709
81.65                   0.151675        -166.303          0.98843         103.472          0.98843         103.472         0.151675        -166.753
81.685                  0.260854        -173.171         0.965378         96.8155         0.965378         96.8155         0.260854        -173.198
81.72                   0.279617        -174.746         0.960112         95.2691         0.960112         95.2691         0.279617        -174.716
81.755                  0.296681        -175.548         0.954433         94.4642         0.954433         94.4642         0.297111        -175.491
81.79                   0.293209        -176.048         0.954928         93.9122         0.954928         93.9122         0.293213        -176.041
81.825                   0.28947        -176.829         0.956604         93.1603         0.956604         93.1603          0.28947        -176.815
81.86                   0.270115        -178.432         0.962828         91.5791         0.962828         91.5791         0.270115         -178.41
81.895                  0.774867        -143.687         0.632124         126.296         0.632124         126.296         0.774867         -143.72