! TOUCHSTONE file generated by CST MICROWAVE STUDIO
! Date and time: Fri Feb 16 12:03:53 2024
! Project name: material_rotado.cst
! Parameters = {angX=1.5; angY=0.75}
! Header version: 2018
! Port assignment regex: !\s*Touchstone port\s*([0-9]+)\s*=\s*(CST MWS port|CST DS port)\s*([0-9]+|Zmin|Zmax)\s*\(\"(.*)\"\)(\s*mode\s*([0-9]+))?.*
! Touchstone port assignment:
! Touchstone port 1 = CST MWS port 1 ("")
! Touchstone port 2 = CST MWS port 2 ("")
# GHz S MA R 376.7
75                      0.351677        -159.118         0.936121         110.872         0.936121         110.872         0.351677        -159.138
75.035                  0.230041        -151.915         0.973181         118.063         0.973181         118.063         0.230041        -151.959
75.07                   0.255347        -153.513         0.966849         116.469         0.966849         116.469         0.255347         -153.55
75.105                  0.262855        -154.058          0.96484         115.924          0.96484         115.924         0.262853        -154.094
75.14                   0.266949        -154.401         0.963715         115.581         0.963715         115.581         0.266946        -154.436
75.175                  0.269741        -154.667         0.962935         115.316         0.962935         115.316          0.26974        -154.701
75.21                   0.271873        -154.894         0.962333          115.09         0.962333          115.09         0.271873        -154.926
75.245                  0.273608        -155.097         0.961839         114.888         0.961839         114.888         0.273609        -155.128
75.28                   0.275078        -155.284         0.961417         114.701         0.961417         114.701         0.275081        -155.314
75.315                  0.276359         -155.46         0.961049         114.526         0.961049         114.526         0.276362         -155.49
75.35                   0.277497        -155.628         0.960721         114.359         0.960721         114.359           0.2775        -155.656
75.385                  0.278523        -155.789         0.960425         114.198         0.960425         114.198         0.278525        -155.816
75.42                   0.279458        -155.945         0.960155         114.042         0.960155         114.042          0.27946        -155.971
75.455                  0.280319        -156.096         0.959907         113.891         0.959907         113.891         0.280319        -156.122
75.49                   0.281117        -156.244         0.959677         113.743         0.959677         113.743         0.281115        -156.269
75.525                  0.281861        -156.388         0.959463         113.598         0.959463         113.598         0.281856        -156.414
75.56                   0.282559         -156.53         0.959262         113.456         0.959262         113.456         0.282551        -156.555
75.595                  0.283216         -156.67         0.959073         113.315         0.959073         113.315         0.283206        -156.695
75.63                   0.283838        -156.808         0.958894         113.177         0.958894         113.177         0.283824        -156.832
75.665                  0.284428        -156.944         0.958725          113.04         0.958725          113.04          0.28441        -156.968
75.7                    0.284989        -157.078         0.958563         112.905         0.958563         112.905         0.284967        -157.102
75.735                  0.285524        -157.211         0.958409         112.771         0.958409         112.771         0.285499        -157.235
75.77                   0.286036        -157.343         0.958261         112.638         0.958261         112.638         0.286007        -157.367
75.805                  0.286527        -157.474          0.95812         112.507          0.95812         112.507         0.286494        -157.498
75.84                   0.286998        -157.604         0.957983         112.376         0.957983         112.376         0.286961        -157.628
75.875                  0.287451        -157.733         0.957852         112.246         0.957852         112.246         0.287411        -157.757
75.91                   0.287887        -157.861         0.957725         112.117         0.957725         112.117         0.287844        -157.885
75.945                  0.288308        -157.989         0.957601         111.988         0.957601         111.988         0.288261        -158.013
75.98                   0.288714        -158.116         0.957482         111.861         0.957482         111.861         0.288665         -158.14
76.015                  0.289106        -158.242         0.957366         111.734         0.957366         111.734         0.289055        -158.266
76.05                   0.289486        -158.368         0.957253         111.607         0.957253         111.607         0.289433        -158.392
76.085                  0.289853        -158.494         0.957142         111.481         0.957142         111.481         0.289799        -158.518
76.12                   0.290209        -158.619         0.957035         111.356         0.957035         111.356         0.290154        -158.643
76.155                  0.290554        -158.744          0.95693         111.231          0.95693         111.231         0.290498        -158.767
76.19                   0.290888        -158.869         0.956827         111.106         0.956827         111.106         0.290833        -158.892
76.225                  0.291211        -158.993         0.956726         110.982         0.956726         110.982         0.291158        -159.016
76.26                   0.291526        -159.117         0.956627         110.858         0.956627         110.858         0.291474         -159.14
76.295                   0.29183        -159.242          0.95653         110.735          0.95653         110.735         0.291782        -159.264
76.33                   0.292126        -159.366         0.956434         110.611         0.956434         110.611         0.292081        -159.388
76.365                  0.292412         -159.49          0.95634         110.489          0.95634         110.489         0.292372        -159.511
76.4                     0.29269        -159.615         0.956248         110.366         0.956248         110.366         0.292656        -159.635
76.435                  0.292959        -159.739         0.956157         110.244         0.956157         110.244         0.292932        -159.758
76.47                    0.29322        -159.864         0.956068         110.122         0.956068         110.122         0.293201        -159.882
76.505                  0.293473        -159.989         0.955979             110         0.955979             110         0.293463        -160.005
76.54                   0.293717        -160.114         0.955892         109.878         0.955892         109.878         0.293717        -160.129
76.575                  0.293954         -160.24         0.955806         109.757         0.955806         109.757         0.293965        -160.252
76.61                   0.294182        -160.367         0.955721         109.636         0.955721         109.636         0.294207        -160.376
76.645                  0.294403        -160.494         0.955638         109.515         0.955638         109.515         0.294441          -160.5
76.68                   0.294615        -160.622         0.955555         109.394         0.955555         109.394          0.29467        -160.624
76.715                   0.29482         -160.75         0.955473         109.274         0.955473         109.274         0.294891        -160.748
76.75                   0.295017         -160.88         0.955392         109.154         0.955392         109.154         0.295106        -160.873
76.785                  0.295207        -161.011         0.955312         109.033         0.955312         109.033         0.295315        -160.998
76.82                   0.295389        -161.144         0.955233         108.913         0.955233         108.913         0.295517        -161.123
76.855                  0.295563        -161.278         0.955155         108.793         0.955155         108.793         0.295712        -161.249
76.89                   0.295731        -161.413         0.955077         108.674         0.955077         108.674         0.295901        -161.376
76.925                  0.295893        -161.551         0.955001         108.554         0.955001         108.554         0.296083        -161.503
76.96                   0.296048        -161.692         0.954925         108.434         0.954925         108.434         0.296259        -161.631
76.995                  0.296199        -161.835          0.95485         108.315          0.95485         108.315         0.296427        -161.759
77.03                   0.296347        -161.982         0.954776         108.196         0.954776         108.196         0.296588        -161.889
77.065                  0.296492        -162.132         0.954703         108.076         0.954703         108.076         0.296742         -162.02
77.1                    0.296639        -162.287          0.95463         107.957          0.95463         107.957         0.296889        -162.152
77.135                  0.296789        -162.446         0.954559         107.838         0.954559         107.838         0.297029        -162.286
77.17                   0.296948         -162.61         0.954488         107.719         0.954488         107.719          0.29716        -162.421
77.205                  0.297121         -162.78         0.954418           107.6         0.954418           107.6         0.297284        -162.559
77.24                   0.297315        -162.956         0.954349         107.481         0.954349         107.481         0.297401        -162.698
77.275                  0.297539        -163.137         0.954281         107.362         0.954281         107.362          0.29751        -162.841
77.31                   0.297805        -163.324         0.954215         107.243         0.954215         107.243         0.297611        -162.987
77.345                  0.298124        -163.516         0.954149         107.124         0.954149         107.124         0.297706        -163.136
77.38                   0.298509         -163.71         0.954084         107.005         0.954084         107.005         0.297795         -163.29
77.415                  0.298972        -163.903          0.95402         106.887          0.95402         106.887         0.297879        -163.449
77.45                    0.29952        -164.092         0.953958         106.768         0.953958         106.768         0.297963        -163.614
77.485                  0.300152        -164.271         0.953896         106.649         0.953896         106.649         0.298048        -163.787
77.52                   0.300857        -164.434         0.953836          106.53         0.953836          106.53         0.298142        -163.968
77.555                  0.301615        -164.577         0.953778          106.41         0.953778          106.41         0.298253         -164.16
77.59                   0.302391        -164.698         0.953721         106.291         0.953721         106.291         0.298396        -164.363
77.625                  0.303149        -164.794         0.953666         106.172         0.953666         106.172         0.298589        -164.579
77.66                   0.303853         -164.87         0.953612         106.052         0.953612         106.052         0.298862        -164.808
77.695                  0.304476        -164.929          0.95356         105.933          0.95356         105.933         0.299251        -165.049
77.73                   0.305003        -164.976         0.953511         105.813         0.953511         105.813         0.299804        -165.298
77.765                  0.305429        -165.018         0.953463         105.693         0.953463         105.693         0.300566        -165.544
77.8                    0.305758        -165.059         0.953418         105.572         0.953418         105.572         0.301567         -165.77
77.835                     0.306        -165.101         0.953376         105.451         0.953376         105.451         0.302785        -165.953
77.87                   0.306167        -165.149         0.953337          105.33         0.953337          105.33         0.304127        -166.072
77.905                  0.306271        -165.202         0.953301         105.209         0.953301         105.209         0.305429        -166.119
77.94                   0.306323        -165.263         0.953269         105.087         0.953269         105.087          0.30652        -166.103
77.975                   0.30633         -165.33         0.953242         104.964         0.953242         104.964         0.307288        -166.049
78.01                     0.3063        -165.404         0.953219          104.84         0.953219          104.84         0.307717        -165.988
78.045                  0.306237        -165.484         0.953202         104.716         0.953202         104.716         0.307857        -165.939
78.08                   0.306143        -165.571         0.953191         104.591         0.953191         104.591         0.307786        -165.913
78.115                  0.306019        -165.663         0.953188         104.464         0.953188         104.464         0.307573        -165.915
78.15                   0.305863        -165.762         0.953193         104.336         0.953193         104.336         0.307269        -165.943
78.185                  0.305673        -165.865         0.953209         104.207         0.953209         104.207         0.306906        -165.994
78.22                   0.305445        -165.975         0.953238         104.075         0.953238         104.075           0.3065        -166.064
78.255                   0.30517        -166.089         0.953281         103.941         0.953281         103.941         0.306057        -166.151
78.29                   0.304839         -166.21         0.953343         103.803         0.953343         103.803         0.305572        -166.251
78.325                  0.304439        -166.337         0.953427         103.662         0.953427         103.662         0.305034        -166.365
78.36                   0.303951        -166.472         0.953541         103.516         0.953541         103.516         0.304425        -166.491
78.395                  0.303346        -166.616         0.953694         103.363         0.953694         103.363         0.303716        -166.629
78.43                   0.302586        -166.771         0.953896           103.2         0.953896           103.2         0.302867         -166.78
78.465                  0.301609         -166.94         0.954169         103.026         0.954169         103.026         0.301815        -166.949
78.5                    0.300318         -167.13          0.95454         102.833          0.95454         102.833         0.300462        -167.139
78.535                  0.298549        -167.351         0.955056         102.614         0.955056         102.614         0.298642         -167.36
78.57                   0.295995         -167.62         0.955796          102.35         0.955796          102.35         0.296048        -167.629
78.605                  0.292023        -167.975          0.95688         102.007          0.95688         102.007         0.292045        -167.986
78.64                   0.285068        -168.511         0.958507         101.484         0.958507         101.484         0.285068        -168.521
78.675                  0.269925        -169.537         0.962507         100.437         0.962507         100.437         0.269912        -169.544
78.71                   0.212662        -173.058         0.977126         96.9497         0.977126         96.9497         0.212662        -173.043
78.745                  0.553352        -151.832         0.832948         118.144         0.832948         118.144         0.553352         -151.88
78.78                   0.366987        -164.018         0.930264         105.902         0.930264         105.902         0.366941        -164.052
78.815                  0.342882        -165.622         0.939433         104.312         0.939433         104.312         0.342839        -165.651
78.85                   0.333503        -166.319         0.942805         103.626         0.942805         103.626         0.333466        -166.347
78.885                  0.328551        -166.747         0.944533         103.209         0.944533         103.209         0.328523        -166.773
78.92                   0.325517        -167.059          0.94557         102.908          0.94557         102.908         0.325498        -167.083
78.955                  0.323488        -167.312          0.94625         102.667          0.94625         102.667         0.323479        -167.332
78.99                   0.322053        -167.529         0.946722         102.462         0.946722         102.462         0.322053        -167.547
79.025                  0.320998        -167.724         0.947062          102.28         0.947062          102.28         0.321007        -167.738
79.06                   0.320204        -167.905         0.947315         102.112         0.947315         102.112          0.32022        -167.915
79.095                  0.319596        -168.075         0.947505         101.956         0.947505         101.956         0.319617        -168.081
79.13                   0.319127        -168.238         0.947649         101.807         0.947649         101.807         0.319151        -168.238
79.165                  0.318765        -168.395          0.94776         101.665          0.94776         101.665         0.318789         -168.39
79.2                    0.318489        -168.548         0.947843         101.527         0.947843         101.527         0.318508        -168.537
79.235                  0.318282        -168.697         0.947907         101.393         0.947907         101.393         0.318293         -168.68
79.27                   0.318132        -168.843         0.947953         101.262         0.947953         101.262          0.31813         -168.82
79.305                   0.31803        -168.985         0.947986         101.133         0.947986         101.133         0.318012        -168.957
79.34                   0.317969        -169.126         0.948008         101.007         0.948008         101.007          0.31793        -169.092
79.375                  0.317944        -169.264         0.948021         100.882         0.948021         100.882         0.317879        -169.225
79.41                   0.317948        -169.399         0.948026         100.758         0.948026         100.758         0.317855        -169.356
79.445                  0.317979        -169.532         0.948025         100.636         0.948025         100.636         0.317854        -169.486
79.48                   0.318032        -169.663         0.948018         100.514         0.948018         100.514         0.317873        -169.614
79.515                  0.318105        -169.792         0.948007         100.394         0.948007         100.394          0.31791        -169.741
79.55                   0.318194        -169.918         0.947991         100.274         0.947991         100.274         0.317962        -169.867
79.585                  0.318296        -170.043         0.947971         100.155         0.947971         100.155         0.318028        -169.991
79.62                    0.31841        -170.165         0.947949         100.037         0.947949         100.037         0.318106        -170.114
79.655                  0.318532        -170.285         0.947924         99.9192         0.947924         99.9192         0.318194        -170.236
79.69                   0.318662        -170.403         0.947896         99.8019         0.947896         99.8019         0.318292        -170.357
79.725                  0.318797         -170.52         0.947866          99.685         0.947866          99.685         0.318398        -170.477
79.76                   0.318935        -170.635         0.947835         99.5685         0.947835         99.5685         0.318512        -170.596
79.795                  0.319076        -170.748         0.947801         99.4523         0.947801         99.4523         0.318632        -170.713
79.83                   0.319219         -170.86         0.947766         99.3364         0.947766         99.3364         0.318757         -170.83
79.865                  0.319362        -170.971          0.94773         99.2208          0.94773         99.2208         0.318888        -170.946
79.9                    0.319505        -171.081         0.947692         99.1054         0.947692         99.1054         0.319022        -171.061
79.935                  0.319648         -171.19         0.947653         98.9902         0.947653         98.9902          0.31916        -171.175
79.97                    0.31979        -171.298         0.947613         98.8753         0.947613         98.8753         0.319301        -171.289
80.005                   0.31993        -171.406         0.947572         98.7604         0.947572         98.7604         0.319445        -171.402
80.04                   0.320069        -171.513          0.94753         98.6457          0.94753         98.6457         0.319591        -171.514
80.075                  0.320207         -171.62         0.947487         98.5311         0.947487         98.5311         0.319739        -171.625
80.11                   0.320344        -171.726         0.947444         98.4167         0.947444         98.4167         0.319888        -171.736
80.145                  0.320479        -171.833         0.947399         98.3023         0.947399         98.3023         0.320039        -171.846
80.18                   0.320614        -171.939         0.947354         98.1879         0.947354         98.1879          0.32019        -171.956
80.215                  0.320748        -172.045         0.947308         98.0736         0.947308         98.0736         0.320343        -172.066
80.25                   0.320881        -172.152         0.947261         97.9594         0.947261         97.9594         0.320496        -172.175
80.285                  0.321014        -172.258         0.947213         97.8451         0.947213         97.8451          0.32065        -172.283
80.32                   0.321147        -172.365         0.947164         97.7308         0.947164         97.7308         0.320805        -172.392
80.355                  0.321281        -172.472         0.947115         97.6165         0.947115         97.6165         0.320961          -172.5
80.39                   0.321415        -172.579         0.947064         97.5021         0.947064         97.5021         0.321117        -172.609
80.425                  0.321551        -172.687         0.947013         97.3877         0.947013         97.3877         0.321275        -172.717
80.46                   0.321688        -172.795         0.946961         97.2732         0.946961         97.2732         0.321435        -172.825
80.495                  0.321828        -172.903         0.946907         97.1586         0.946907         97.1586         0.321595        -172.933
80.53                   0.321969        -173.012         0.946852         97.0438         0.946852         97.0438         0.321758        -173.042
80.565                  0.322114        -173.121         0.946796         96.9288         0.946796         96.9288         0.321924         -173.15
80.6                    0.322263         -173.23         0.946738         96.8137         0.946738         96.8137         0.322092        -173.259
80.635                  0.322415         -173.34         0.946679         96.6983         0.946679         96.6983         0.322264        -173.368
80.67                   0.322572        -173.451         0.946618         96.5827         0.946618         96.5827         0.322439        -173.477
80.705                  0.322735        -173.562         0.946555         96.4667         0.946555         96.4667          0.32262        -173.587
80.74                   0.322905        -173.674         0.946489         96.3504         0.946489         96.3504         0.322805        -173.697
80.775                  0.323082        -173.786         0.946421         96.2337         0.946421         96.2337         0.322998        -173.808
80.81                   0.323267        -173.899          0.94635         96.1165          0.94635         96.1165         0.323198        -173.919
80.845                  0.323462        -174.013         0.946276         95.9988         0.946276         95.9988         0.323406        -174.031
80.88                   0.323668        -174.128         0.946198         95.8805         0.946198         95.8805         0.323625        -174.144
80.915                  0.323887        -174.243         0.946116         95.7615         0.946116         95.7615         0.323856        -174.258
80.95                   0.324121         -174.36         0.946029         95.6417         0.946029         95.6417         0.324101        -174.372
80.985                  0.324372        -174.478         0.945936         95.5209         0.945936         95.5209         0.324363        -174.488
81.02                   0.324643        -174.597         0.945837          95.399         0.945837          95.399         0.324643        -174.605
81.055                  0.324938        -174.717         0.945729         95.2759         0.945729         95.2759         0.324946        -174.724
81.09                    0.32526         -174.84         0.945612         95.1512         0.945612         95.1512         0.325277        -174.844
81.125                  0.325615        -174.964         0.945485         95.0247         0.945485         95.0247         0.325639        -174.967
81.16                    0.32601        -175.091         0.945343          94.896         0.945343          94.896         0.326041        -175.091
81.195                  0.326452        -175.221         0.945186         94.7646         0.945186         94.7646          0.32649        -175.219
81.23                   0.326954        -175.354         0.945008         94.6301         0.945008         94.6301         0.326997        -175.351
81.265                  0.327529        -175.491         0.944806         94.4915         0.944806         94.4915         0.327577        -175.486
81.3                    0.328197        -175.634         0.944572         94.3477         0.944572         94.3477          0.32825        -175.627
81.335                  0.328984        -175.784         0.944297         94.1974         0.944297         94.1974         0.329041        -175.775
81.37                   0.329929        -175.943         0.943967         94.0383         0.943967         94.0383         0.329991        -175.933
81.405                  0.331089        -176.114         0.943563         93.8674         0.943563         93.8674         0.331154        -176.102
81.44                   0.332549        -176.303         0.943054         93.6798         0.943054         93.6798         0.332618        -176.289
81.475                   0.33445        -176.517          0.94239         93.4677          0.94239         93.4677         0.334523        -176.502
81.51                   0.337035         -176.77         0.941484         93.2174         0.941484         93.2174         0.337112        -176.754
81.545                  0.340764        -177.091         0.940166         92.9028         0.940166         92.9028         0.340846        -177.074
81.58                   0.346631        -177.537         0.938068         92.4669         0.938068         92.4669         0.346719         -177.52
81.615                  0.357242        -178.267         0.934182         91.7576         0.934182         91.7576         0.357341        -178.251
81.65                   0.382315        -179.892         0.924488         90.1846         0.924488         90.1846         0.382432        -179.883
81.685                  0.512248         171.177         0.858838         81.1458         0.858838         81.1458         0.512248         171.114
81.72                   0.159958        -170.296         0.990457         101.382         0.990457         101.382         0.159925          -170.4
81.755                  0.262821        -173.642         0.964845         96.3686         0.964845         96.3686         0.262821        -173.621
81.79                   0.285536         -174.85         0.958191         95.1063         0.958191         95.1063          0.28556        -174.822
81.825                  0.295488        -175.466          0.95514         94.4824          0.95514         94.4824         0.295522        -175.435
81.86                   0.301078        -175.866         0.953388         94.0816         0.953388         94.0816         0.301118        -175.833
81.895                  0.304662        -176.163         0.952249         93.7848         0.952249         93.7848         0.304705        -176.129