! TOUCHSTONE file generated by CST MICROWAVE STUDIO
! Date and time: Wed Feb 14 17:05:47 2024
! Project name: material_rotado.cst
! Parameters = {angY=1.75}
! Header version: 2018
! Port assignment regex: !\s*Touchstone port\s*([0-9]+)\s*=\s*(CST MWS port|CST DS port)\s*([0-9]+|Zmin|Zmax)\s*\(\"(.*)\"\)(\s*mode\s*([0-9]+))?.*
! Touchstone port assignment:
! Touchstone port 1 = CST MWS port 1 ("")
! Touchstone port 2 = CST MWS port 2 ("")
# GHz S MA R 376.7
75                      0.306373          173.17         0.951912         110.465         0.951912         110.465         0.306373         -132.24
75.035                  0.306577         172.714         0.951948         110.018         0.951948         110.018         0.306605        -132.677
75.07                   0.306781         172.258         0.951979          109.57         0.951979          109.57         0.306835        -133.114
75.105                  0.306985         171.801         0.952005         109.122         0.952005         109.122         0.307064        -133.551
75.14                   0.307189         171.345         0.952026         108.674         0.952026         108.674         0.307292        -133.988
75.175                  0.307392         170.888         0.952042         108.226         0.952042         108.226         0.307518        -134.425
75.21                   0.307595         170.431         0.952053         107.777         0.952053         107.777         0.307742        -134.862
75.245                  0.307798         169.974         0.952059         107.329         0.952059         107.329         0.307965        -135.299
75.28                      0.308         169.516          0.95206          106.88          0.95206          106.88         0.308187        -135.736
75.315                  0.308201         169.059         0.952056         106.432         0.952056         106.432         0.308406        -136.173
75.35                   0.308403         168.601         0.952047         105.983         0.952047         105.983         0.308625        -136.609
75.385                  0.308604         168.144         0.952034         105.534         0.952034         105.534         0.308841        -137.046
75.42                   0.308804         167.686         0.952016         105.085         0.952016         105.085         0.309056        -137.483
75.455                  0.309004         167.228         0.951993         104.637         0.951993         104.637          0.30927         -137.92
75.49                   0.309204          166.77         0.951965         104.188         0.951965         104.188         0.309482        -138.356
75.525                  0.309403         166.311         0.951933         103.739         0.951933         103.739         0.309693        -138.793
75.56                   0.309602         165.853         0.951897          103.29         0.951897          103.29         0.309902        -139.229
75.595                    0.3098         165.395         0.951857         102.841         0.951857         102.841         0.310109        -139.666
75.63                   0.309997         164.936         0.951812         102.392         0.951812         102.392         0.310315        -140.102
75.665                  0.310194         164.477         0.951763         101.943         0.951763         101.943         0.310519        -140.539
75.7                     0.31039         164.018         0.951711         101.494         0.951711         101.494         0.310722        -140.975
75.735                  0.310586         163.559         0.951655         101.045         0.951655         101.045         0.310923        -141.411
75.77                   0.310781           163.1         0.951595         100.596         0.951595         100.596         0.311123        -141.848
75.805                  0.310976         162.641         0.951531         100.148         0.951531         100.148         0.311321        -142.284
75.84                    0.31117         162.182         0.951465          99.699         0.951465          99.699         0.311518         -142.72
75.875                  0.311363         161.722         0.951395         99.2504         0.951395         99.2504         0.311713        -143.156
75.91                   0.311556         161.263         0.951322         98.8018         0.951322         98.8018         0.311906        -143.592
75.945                  0.311748         160.803         0.951247         98.3534         0.951247         98.3534         0.312099        -144.028
75.98                   0.311939         160.343         0.951168          97.905         0.951168          97.905         0.312289        -144.464
76.015                   0.31213         159.884         0.951088         97.4568         0.951088         97.4568         0.312478          -144.9
76.05                   0.312319         159.424         0.951005         97.0086         0.951005         97.0086         0.312665        -145.336
76.085                  0.312509         158.964         0.950919         96.5605         0.950919         96.5605         0.312851        -145.771
76.12                   0.312697         158.504         0.950832         96.1126         0.950832         96.1126         0.313036        -146.207
76.155                  0.312884         158.044         0.950743         95.6647         0.950743         95.6647         0.313219        -146.642
76.19                   0.313071         157.583         0.950653          95.217         0.950653          95.217           0.3134        -147.078
76.225                  0.313257         157.123         0.950561         94.7694         0.950561         94.7694          0.31358        -147.513
76.26                   0.313442         156.663         0.950467         94.3219         0.950467         94.3219         0.313758        -147.949
76.295                  0.313627         156.202         0.950373         93.8745         0.950373         93.8745         0.313935        -148.384
76.33                    0.31381         155.742         0.950277         93.4273         0.950277         93.4273          0.31411        -148.819
76.365                  0.313993         155.281         0.950181         92.9801         0.950181         92.9801         0.314284        -149.254
76.4                    0.314175         154.821         0.950084         92.5331         0.950084         92.5331         0.314456         -149.69
76.435                  0.314356          154.36         0.949986         92.0862         0.949986         92.0862         0.314627        -150.125
76.47                   0.314536         153.899         0.949888         91.6394         0.949888         91.6394         0.314796         -150.56
76.505                  0.314715         153.439          0.94979         91.1927          0.94979         91.1927         0.314964        -150.994
76.54                   0.314893         152.978         0.949692         90.7461         0.949692         90.7461          0.31513        -151.429
76.575                   0.31507         152.517         0.949593         90.2997         0.949593         90.2997         0.315295        -151.864
76.61                   0.315247         152.056         0.949495         89.8533         0.949495         89.8533         0.315458        -152.299
76.645                  0.315422         151.595         0.949397         89.4071         0.949397         89.4071          0.31562        -152.733
76.68                   0.315596         151.134         0.949299          88.961         0.949299          88.961         0.315781        -153.168
76.715                   0.31577         150.673         0.949202         88.5149         0.949202         88.5149         0.315939        -153.602
76.75                   0.315942         150.212         0.949106          88.069         0.949106          88.069         0.316097        -154.036
76.785                  0.316113         149.751          0.94901         87.6231          0.94901         87.6231         0.316253        -154.471
76.82                   0.316284          149.29         0.948915         87.1774         0.948915         87.1774         0.316407        -154.905
76.855                  0.316453         148.828          0.94882         86.7317          0.94882         86.7317          0.31656        -155.339
76.89                   0.316621         148.367         0.948727         86.2861         0.948727         86.2861         0.316711        -155.773
76.925                  0.316789         147.906         0.948634         85.8406         0.948634         85.8406         0.316861        -156.207
76.96                   0.316955         147.445         0.948543         85.3951         0.948543         85.3951          0.31701        -156.641
76.995                   0.31712         146.983         0.948453         84.9498         0.948453         84.9498         0.317157        -157.075
77.03                   0.317284         146.522         0.948364         84.5045         0.948364         84.5045         0.317302        -157.509
77.065                  0.317446         146.061         0.948276         84.0592         0.948276         84.0592         0.317446        -157.942
77.1                    0.317608         145.599          0.94819          83.614          0.94819          83.614         0.317589        -158.376
77.135                  0.317769         145.138         0.948105         83.1689         0.948105         83.1689          0.31773        -158.809
77.17                   0.317928         144.676         0.948021         82.7238         0.948021         82.7238          0.31787        -159.243
77.205                  0.318086         144.215         0.947938         82.2788         0.947938         82.2788         0.318008        -159.676
77.24                   0.318243         143.754         0.947858         81.8338         0.947858         81.8338         0.318145        -160.109
77.275                  0.318399         143.292         0.947778         81.3888         0.947778         81.3888          0.31828        -160.543
77.31                   0.318554         142.831           0.9477         80.9439           0.9477         80.9439         0.318414        -160.976
77.345                  0.318707         142.369         0.947624          80.499         0.947624          80.499         0.318547        -161.409
77.38                   0.318859         141.908         0.947549         80.0541         0.947549         80.0541         0.318678        -161.842
77.415                   0.31901         141.446         0.947475         79.6093         0.947475         79.6093         0.318807        -162.275
77.45                    0.31916         140.985         0.947404         79.1644         0.947404         79.1644         0.318936        -162.707
77.485                  0.319308         140.523         0.947333         78.7196         0.947333         78.7196         0.319062         -163.14
77.52                   0.319456         140.061         0.947265         78.2748         0.947265         78.2748         0.319188        -163.573
77.555                  0.319601           139.6         0.947197           77.83         0.947197           77.83         0.319311        -164.005
77.59                   0.319746         139.138         0.947132         77.3853         0.947132         77.3853         0.319434        -164.438
77.625                  0.319889         138.677         0.947068         76.9405         0.947068         76.9405         0.319555         -164.87
77.66                   0.320031         138.215         0.947005         76.4957         0.947005         76.4957         0.319674        -165.303
77.695                  0.320171         137.754         0.946944         76.0509         0.946944         76.0509         0.319793        -165.735
77.73                   0.320311         137.292         0.946885         75.6061         0.946885         75.6061         0.319909        -166.167
77.765                  0.320448         136.831         0.946827         75.1613         0.946827         75.1613         0.320025        -166.599
77.8                    0.320585         136.369          0.94677         74.7165          0.94677         74.7165         0.320138        -167.031
77.835                   0.32072         135.908         0.946716         74.2717         0.946716         74.2717         0.320251        -167.463
77.87                   0.320853         135.446         0.946662         73.8269         0.946662         73.8269         0.320362        -167.895
77.905                  0.320986         134.985          0.94661          73.382          0.94661          73.382         0.320472        -168.327
77.94                   0.321116         134.523          0.94656         72.9371          0.94656         72.9371          0.32058        -168.758
77.975                  0.321246         134.061          0.94651         72.4923          0.94651         72.4923         0.320687         -169.19
78.01                   0.321374           133.6         0.946463         72.0473         0.946463         72.0473         0.320792        -169.622
78.045                    0.3215         133.138         0.946416         71.6024         0.946416         71.6024         0.320896        -170.053
78.08                   0.321625         132.677         0.946371         71.1574         0.946371         71.1574         0.320999        -170.484
78.115                  0.321748         132.216         0.946328         70.7125         0.946328         70.7125           0.3211        -170.916
78.15                    0.32187         131.754         0.946285         70.2674         0.946285         70.2674           0.3212        -171.347
78.185                  0.321991         131.293         0.946244         69.8224         0.946244         69.8224         0.321299        -171.778
78.22                   0.322109         130.831         0.946205         69.3773         0.946205         69.3773         0.321396        -172.209
78.255                  0.322227          130.37         0.946166         68.9322         0.946166         68.9322         0.321492         -172.64
78.29                   0.322343         129.908         0.946129         68.4871         0.946129         68.4871         0.321586        -173.071
78.325                  0.322457         129.447         0.946093         68.0419         0.946093         68.0419         0.321679        -173.502
78.36                   0.322569         128.986         0.946058         67.5967         0.946058         67.5967         0.321771        -173.933
78.395                   0.32268         128.524         0.946024         67.1514         0.946024         67.1514         0.321861        -174.363
78.43                    0.32279         128.063         0.945992         66.7062         0.945992         66.7062          0.32195        -174.794
78.465                  0.322898         127.602          0.94596         66.2608          0.94596         66.2608         0.322037        -175.225
78.5                    0.323004          127.14          0.94593         65.8155          0.94593         65.8155         0.322124        -175.655
78.535                  0.323108         126.679         0.945901         65.3701         0.945901         65.3701         0.322209        -176.085
78.57                   0.323211         126.218         0.945872         64.9247         0.945872         64.9247         0.322292        -176.516
78.605                  0.323312         125.756         0.945845         64.4792         0.945845         64.4792         0.322374        -176.946
78.64                   0.323412         125.295         0.945819         64.0337         0.945819         64.0337         0.322455        -177.376
78.675                   0.32351         124.834         0.945794         63.5881         0.945794         63.5881         0.322535        -177.806
78.71                   0.323606         124.372         0.945769         63.1426         0.945769         63.1426         0.322613        -178.236
78.745                    0.3237         123.911         0.945746         62.6969         0.945746         62.6969          0.32269        -178.666
78.78                   0.323793          123.45         0.945723         62.2513         0.945723         62.2513         0.322765        -179.096
78.815                  0.323884         122.989         0.945702         61.8056         0.945702         61.8056         0.322839        -179.525
78.85                   0.323973         122.528         0.945681         61.3598         0.945681         61.3598         0.322912        -179.955
78.885                  0.324061         122.066         0.945661          60.914         0.945661          60.914         0.322984         179.616
78.92                   0.324147         121.605         0.945642         60.4682         0.945642         60.4682         0.323054         179.186
78.955                  0.324231         121.144         0.945624         60.0223         0.945624         60.0223         0.323123         178.757
78.99                   0.324313         120.683         0.945607         59.5764         0.945607         59.5764         0.323191         178.328
79.025                  0.324393         120.222          0.94559         59.1305          0.94559         59.1305         0.323257         177.899
79.06                   0.324472         119.761         0.945574         58.6845         0.945574         58.6845         0.323322          177.47
79.095                  0.324548         119.299         0.945559         58.2385         0.945559         58.2385         0.323386         177.041
79.13                   0.324623         118.838         0.945545         57.7924         0.945545         57.7924         0.323448         176.612
79.165                  0.324696         118.377         0.945531         57.3464         0.945531         57.3464          0.32351         176.183
79.2                    0.324767         117.916         0.945518         56.9002         0.945518         56.9002          0.32357         175.754
79.235                  0.324837         117.455         0.945505          56.454         0.945505          56.454         0.323629         175.326
79.27                   0.324904         116.994         0.945494         56.0078         0.945494         56.0078         0.323687         174.898
79.305                   0.32497         116.533         0.945483         55.5616         0.945483         55.5616         0.323743         174.469
79.34                   0.325033         116.071         0.945472         55.1153         0.945472         55.1153         0.323798         174.041
79.375                  0.325095          115.61         0.945462          54.669         0.945462          54.669         0.323853         173.613
79.41                   0.325155         115.149         0.945453         54.2226         0.945453         54.2226         0.323906         173.186
79.445                  0.325213         114.688         0.945445         53.7762         0.945445         53.7762         0.323958         172.758
79.48                   0.325269         114.227         0.945436         53.3298         0.945436         53.3298         0.324009         172.331
79.515                  0.325323         113.766         0.945429         52.8833         0.945429         52.8833         0.324059         171.903
79.55                   0.325375         113.304         0.945422         52.4368         0.945422         52.4368         0.324108         171.476
79.585                  0.325425         112.843         0.945415         51.9903         0.945415         51.9903         0.324157          171.05
79.62                   0.325473         112.382         0.945409         51.5437         0.945409         51.5437         0.324204         170.623
79.655                  0.325519          111.92         0.945404         51.0971         0.945404         51.0971         0.324252         170.197
79.69                   0.325563         111.459         0.945399         50.6505         0.945399         50.6505         0.324298         169.771
79.725                  0.325606         110.998         0.945394         50.2038         0.945394         50.2038         0.324345         169.346
79.76                   0.325646         110.536          0.94539         49.7571          0.94539         49.7571         0.324392         168.921
79.795                  0.325684         110.075         0.945387         49.3103         0.945387         49.3103          0.32444         168.496
79.83                    0.32572         109.613         0.945384         48.8636         0.945384         48.8636         0.324489         168.072
79.865                  0.325755         109.151         0.945381         48.4168         0.945381         48.4168         0.324541         167.649
79.9                    0.325787          108.69         0.945379         47.9699         0.945379         47.9699         0.324596         167.227
79.935                  0.325817         108.228         0.945377         47.5231         0.945377         47.5231         0.324657         166.806
79.97                   0.325846         107.766         0.945375         47.0762         0.945375         47.0762         0.324727         166.386
80.005                  0.325872         107.305         0.945374         46.6292         0.945374         46.6292         0.324811         165.967
80.04                   0.325896         106.843         0.945373         46.1823         0.945373         46.1823         0.324916         165.549
80.075                  0.325919         106.381         0.945373         45.7353         0.945373         45.7353         0.325052          165.13
80.11                   0.325939         105.918         0.945372         45.2882         0.945372         45.2882         0.325234          164.71
80.145                  0.325958         105.456         0.945372         44.8412         0.945372         44.8412          0.32547         164.281
80.18                   0.325974         104.994         0.945373         44.3942         0.945373         44.3942         0.325748         163.835
80.215                  0.325989         104.532         0.945374         43.9471         0.945374         43.9471         0.325989         163.363
80.25                   0.326001         104.069         0.945375            43.5         0.945375            43.5         0.326074         162.872
80.285                  0.326012         103.607         0.945378         43.0529         0.945378         43.0529         0.325976         162.389
80.32                   0.326021         103.144         0.945381         42.6057         0.945381         42.6057         0.325788         161.929
80.355                  0.326028         102.681         0.945384         42.1585         0.945384         42.1585         0.325604         161.488
80.39                   0.326033         102.218         0.945388         41.7113         0.945388         41.7113         0.325458         161.059
80.425                  0.326036         101.755         0.945391          41.264         0.945391          41.264         0.325351         160.634
80.46                   0.326037         101.292         0.945395         40.8167         0.945395         40.8167         0.325276         160.212
80.495                  0.326037         100.829         0.945399         40.3693         0.945399         40.3693         0.325223         159.791
80.53                   0.326035         100.365         0.945403          39.922         0.945403          39.922         0.325185         159.369
80.565                  0.326031         99.9014         0.945408         39.4746         0.945408         39.4746         0.325158         158.947
80.6                    0.326025         99.4376         0.945413         39.0272         0.945413         39.0272         0.325139         158.524
80.635                  0.326017         98.9736         0.945418         38.5797         0.945418         38.5797         0.325124         158.101
80.67                   0.326008         98.5095         0.945423         38.1322         0.945423         38.1322         0.325114         157.678
80.705                  0.325998         98.0452         0.945429         37.6847         0.945429         37.6847         0.325105         157.254
80.74                   0.325985         97.5807         0.945435         37.2372         0.945435         37.2372         0.325099          156.83
80.775                  0.325971          97.116         0.945441         36.7897         0.945441         36.7897         0.325093         156.405
80.81                   0.325956         96.6512         0.945447         36.3421         0.945447         36.3421         0.325089         155.981
80.845                  0.325939         96.1861         0.945454         35.8945         0.945454         35.8945         0.325084         155.556
80.88                    0.32592         95.7209         0.945461         35.4468         0.945461         35.4468          0.32508          155.13
80.915                  0.325901         95.2555         0.945468         34.9992         0.945468         34.9992         0.325075         154.705
80.95                   0.325879         94.7899         0.945475         34.5515         0.945475         34.5515          0.32507          154.28
80.985                  0.325857          94.324         0.945483         34.1038         0.945483         34.1038         0.325065         153.854
81.02                   0.325833          93.858         0.945491         33.6561         0.945491         33.6561          0.32506         153.429
81.055                  0.325808         93.3918         0.945499         33.2083         0.945499         33.2083         0.325053         153.003
81.09                   0.325782         92.9253         0.945507         32.7605         0.945507         32.7605         0.325046         152.577
81.125                  0.325754         92.4587         0.945516         32.3127         0.945516         32.3127         0.325039         152.152
81.16                   0.325726         91.9918         0.945524         31.8648         0.945524         31.8648         0.325031         151.726
81.195                  0.325696         91.5247         0.945533         31.4169         0.945533         31.4169         0.325022           151.3
81.23                   0.325665         91.0574         0.945542          30.969         0.945542          30.969         0.325012         150.874
81.265                  0.325634         90.5899         0.945552         30.5211         0.945552         30.5211         0.325002         150.448
81.3                    0.325601         90.1222         0.945561         30.0731         0.945561         30.0731          0.32499         150.022
81.335                  0.325568         89.6542         0.945571         29.6251         0.945571         29.6251         0.324978         149.596
81.37                   0.325534          89.186         0.945581         29.1771         0.945581         29.1771         0.324965          149.17
81.405                  0.325499         88.7176         0.945591          28.729         0.945591          28.729         0.324952         148.744
81.44                   0.325463          88.249         0.945602          28.281         0.945602          28.281         0.324937         148.318
81.475                  0.325427         87.7802         0.945612         27.8328         0.945612         27.8328         0.324922         147.892
81.51                    0.32539         87.3112         0.945623         27.3847         0.945623         27.3847         0.324906         147.466
81.545                  0.325352         86.8419         0.945634         26.9365         0.945634         26.9365         0.324889          147.04
81.58                   0.325314         86.3725         0.945645         26.4883         0.945645         26.4883         0.324872         146.614
81.615                  0.325275         85.9028         0.945656           26.04         0.945656           26.04         0.324853         146.189
81.65                   0.325236          85.433         0.945668         25.5917         0.945668         25.5917         0.324834         145.763
81.685                  0.325196         84.9629         0.945679         25.1434         0.945679         25.1434         0.324814         145.337
81.72                   0.325156         84.4926         0.945691         24.6951         0.945691         24.6951         0.324793         144.911
81.755                  0.325116         84.0221         0.945703         24.2467         0.945703         24.2467         0.324772         144.485
81.79                   0.325075         83.5515         0.945715         23.7982         0.945715         23.7982          0.32475         144.059
81.825                  0.325034         83.0806         0.945727         23.3498         0.945727         23.3498         0.324727         143.633
81.86                   0.324993         82.6095         0.945739         22.9013         0.945739         22.9013         0.324703         143.207
81.895                  0.324951         82.1383         0.945752         22.4527         0.945752         22.4527         0.324678         142.782