! TOUCHSTONE file generated by CST MICROWAVE STUDIO
! Date and time: Fri Feb 16 12:03:44 2024
! Project name: material_rotado.cst
! Parameters = {angX=0.75; angY=0.75}
! Header version: 2018
! Port assignment regex: !\s*Touchstone port\s*([0-9]+)\s*=\s*(CST MWS port|CST DS port)\s*([0-9]+|Zmin|Zmax)\s*\(\"(.*)\"\)(\s*mode\s*([0-9]+))?.*
! Touchstone port assignment:
! Touchstone port 1 = CST MWS port 1 ("")
! Touchstone port 2 = CST MWS port 2 ("")
# GHz S MA R 376.7
75                      0.295695        -156.889         0.955282         113.129         0.955282         113.129         0.295695        -156.853
75.035                  0.295828        -156.989         0.955103         113.012         0.955103         113.012         0.295819        -156.952
75.07                   0.295961        -157.089         0.954926         112.895         0.954926         112.895         0.295944        -157.051
75.105                  0.296094        -157.189         0.954751         112.778         0.954751         112.778         0.296068         -157.15
75.14                   0.296227        -157.289         0.954577         112.661         0.954577         112.661         0.296193        -157.249
75.175                   0.29636        -157.389         0.954405         112.544         0.954405         112.544         0.296317        -157.348
75.21                   0.296493         -157.49         0.954235         112.427         0.954235         112.427         0.296441        -157.448
75.245                  0.296626         -157.59         0.954066         112.311         0.954066         112.311         0.296566        -157.547
75.28                   0.296759        -157.691         0.953899         112.194         0.953899         112.194          0.29669        -157.647
75.315                  0.296891        -157.791         0.953734         112.078         0.953734         112.078         0.296815        -157.747
75.35                   0.297024        -157.892          0.95357         111.961          0.95357         111.961         0.296939        -157.847
75.385                  0.297157        -157.993         0.953408         111.845         0.953408         111.845         0.297064        -157.947
75.42                    0.29729        -158.094         0.953248         111.729         0.953248         111.729         0.297188        -158.047
75.455                  0.297422        -158.195         0.953089         111.613         0.953089         111.613         0.297313        -158.147
75.49                   0.297555        -158.296         0.952932         111.497         0.952932         111.497         0.297437        -158.248
75.525                  0.297688        -158.397         0.952776         111.381         0.952776         111.381         0.297562        -158.348
75.56                    0.29782        -158.499         0.952622         111.265         0.952622         111.265         0.297686        -158.449
75.595                  0.297953          -158.6          0.95247         111.149          0.95247         111.149         0.297811        -158.549
75.63                   0.298085        -158.702         0.952319         111.034         0.952319         111.034         0.297935         -158.65
75.665                  0.298218        -158.803          0.95217         110.918          0.95217         110.918          0.29806        -158.751
75.7                     0.29835        -158.905         0.952023         110.803         0.952023         110.803         0.298184        -158.852
75.735                  0.298483        -159.007         0.951876         110.687         0.951876         110.687         0.298309        -158.953
75.77                   0.298615        -159.109         0.951732         110.572         0.951732         110.572         0.298434        -159.055
75.805                  0.298747        -159.211         0.951589         110.457         0.951589         110.457         0.298558        -159.156
75.84                   0.298879        -159.313         0.951447         110.342         0.951447         110.342         0.298683        -159.258
75.875                  0.299012        -159.415         0.951307         110.227         0.951307         110.227         0.298807        -159.359
75.91                   0.299144        -159.518         0.951169         110.112         0.951169         110.112         0.298932        -159.461
75.945                  0.299276         -159.62         0.951032         109.997         0.951032         109.997         0.299056        -159.563
75.98                   0.299408        -159.723         0.950896         109.882         0.950896         109.882         0.299181        -159.665
76.015                   0.29954        -159.825         0.950762         109.767         0.950762         109.767         0.299305        -159.767
76.05                   0.299672        -159.928         0.950629         109.653         0.950629         109.653          0.29943        -159.869
76.085                  0.299803        -160.031         0.950498         109.538         0.950498         109.538         0.299554        -159.971
76.12                   0.299935        -160.134         0.950368         109.424         0.950368         109.424         0.299678        -160.074
76.155                  0.300067        -160.237          0.95024         109.309          0.95024         109.309         0.299803        -160.176
76.19                   0.300198         -160.34         0.950113         109.195         0.950113         109.195         0.299927        -160.279
76.225                   0.30033        -160.443         0.949987         109.081         0.949987         109.081         0.300051        -160.382
76.26                   0.300461        -160.546         0.949863         108.966         0.949863         108.966         0.300176        -160.485
76.295                  0.300593         -160.65         0.949741         108.852         0.949741         108.852           0.3003        -160.588
76.33                   0.300724        -160.753         0.949619         108.738         0.949619         108.738         0.300424        -160.691
76.365                  0.300855        -160.857         0.949499         108.624         0.949499         108.624         0.300549        -160.794
76.4                    0.300986        -160.961          0.94938         108.511          0.94938         108.511         0.300673        -160.897
76.435                  0.301117        -161.064         0.949263         108.397         0.949263         108.397         0.300797        -161.001
76.47                   0.301248        -161.168         0.949147         108.283         0.949147         108.283         0.300921        -161.104
76.505                  0.301379        -161.272         0.949033         108.169         0.949033         108.169         0.301045        -161.208
76.54                   0.301509        -161.376         0.948919         108.056         0.948919         108.056         0.301169        -161.311
76.575                   0.30164         -161.48         0.948807         107.942         0.948807         107.942         0.301293        -161.415
76.61                   0.301771        -161.585         0.948697         107.829         0.948697         107.829         0.301417        -161.519
76.645                  0.301901        -161.689         0.948587         107.715         0.948587         107.715         0.301541        -161.623
76.68                   0.302031        -161.793         0.948479         107.602         0.948479         107.602         0.301665        -161.727
76.715                  0.302161        -161.898         0.948373         107.489         0.948373         107.489         0.301789        -161.832
76.75                   0.302292        -162.003         0.948267         107.376         0.948267         107.376         0.301913        -161.936
76.785                  0.302421        -162.107         0.948163         107.263         0.948163         107.263         0.302036        -162.041
76.82                   0.302551        -162.212          0.94806          107.15          0.94806          107.15          0.30216        -162.145
76.855                  0.302681        -162.317         0.947958         107.037         0.947958         107.037         0.302284         -162.25
76.89                   0.302811        -162.422         0.947858         106.924         0.947858         106.924         0.302407        -162.355
76.925                   0.30294        -162.527         0.947758         106.811         0.947758         106.811         0.302531        -162.459
76.96                    0.30307        -162.632          0.94766         106.698          0.94766         106.698         0.302654        -162.564
76.995                  0.303199        -162.737         0.947564         106.585         0.947564         106.585         0.302778         -162.67
77.03                   0.303328        -162.843         0.947468         106.473         0.947468         106.473         0.302901        -162.775
77.065                  0.303457        -162.948         0.947374          106.36         0.947374          106.36         0.303024         -162.88
77.1                    0.303586        -163.054         0.947281         106.248         0.947281         106.248         0.303147        -162.986
77.135                  0.303714        -163.159         0.947189         106.135         0.947189         106.135          0.30327        -163.091
77.17                   0.303843        -163.265         0.947098         106.023         0.947098         106.023         0.303393        -163.197
77.205                  0.303971        -163.371         0.947008          105.91         0.947008          105.91         0.303516        -163.302
77.24                     0.3041        -163.477          0.94692         105.798          0.94692         105.798         0.303639        -163.408
77.275                  0.304228        -163.582         0.946832         105.686         0.946832         105.686         0.303762        -163.514
77.31                   0.304356        -163.689         0.946746         105.574         0.946746         105.574         0.303884         -163.62
77.345                  0.304484        -163.795         0.946661         105.462         0.946661         105.462         0.304007        -163.726
77.38                   0.304611        -163.901         0.946577          105.35         0.946577          105.35          0.30413        -163.832
77.415                  0.304739        -164.007         0.946495         105.238         0.946495         105.238         0.304252        -163.939
77.45                   0.304866        -164.114         0.946413         105.126         0.946413         105.126         0.304374        -164.045
77.485                  0.304993         -164.22         0.946333         105.014         0.946333         105.014         0.304496        -164.152
77.52                    0.30512        -164.327         0.946253         104.902         0.946253         104.902         0.304619        -164.258
77.555                  0.305247        -164.433         0.946175          104.79         0.946175          104.79         0.304741        -164.365
77.59                   0.305374         -164.54         0.946098         104.679         0.946098         104.679         0.304863        -164.472
77.625                    0.3055        -164.647         0.946022         104.567         0.946022         104.567         0.304984        -164.579
77.66                   0.305627        -164.754         0.945947         104.456         0.945947         104.456         0.305106        -164.686
77.695                  0.305753        -164.861         0.945873         104.344         0.945873         104.344         0.305228        -164.793
77.73                   0.305879        -164.968           0.9458         104.233           0.9458         104.233         0.305349          -164.9
77.765                  0.306004        -165.075         0.945729         104.121         0.945729         104.121          0.30547        -165.007
77.8                     0.30613        -165.182         0.945658          104.01         0.945658          104.01         0.305592        -165.115
77.835                  0.306255        -165.289         0.945588         103.898         0.945588         103.898         0.305713        -165.222
77.87                   0.306381        -165.397          0.94552         103.787          0.94552         103.787         0.305834         -165.33
77.905                  0.306505        -165.504         0.945452         103.676         0.945452         103.676         0.305955        -165.437
77.94                    0.30663        -165.612         0.945386         103.565         0.945386         103.565         0.306075        -165.545
77.975                  0.306755        -165.719          0.94532         103.454          0.94532         103.454         0.306196        -165.653
78.01                   0.306879        -165.827         0.945256         103.343         0.945256         103.343         0.306316        -165.761
78.045                  0.307003        -165.935         0.945192         103.232         0.945192         103.232         0.306437        -165.869
78.08                   0.307127        -166.043          0.94513         103.121          0.94513         103.121         0.306557        -165.977
78.115                  0.307251        -166.151         0.945069          103.01         0.945069          103.01         0.306677        -166.085
78.15                   0.307374        -166.259         0.945008         102.899         0.945008         102.899         0.306797        -166.194
78.185                  0.307498        -166.367         0.944949         102.788         0.944949         102.788         0.306916        -166.302
78.22                   0.307621        -166.475          0.94489         102.677          0.94489         102.677         0.307036         -166.41
78.255                  0.307744        -166.583         0.944833         102.567         0.944833         102.567         0.307155        -166.519
78.29                   0.307866        -166.692         0.944776         102.456         0.944776         102.456         0.307275        -166.628
78.325                  0.307988          -166.8         0.944721         102.345         0.944721         102.345         0.307394        -166.736
78.36                    0.30811        -166.909         0.944666         102.235         0.944666         102.235         0.307513        -166.845
78.395                  0.308232        -167.017         0.944613         102.124         0.944613         102.124         0.307631        -166.954
78.43                   0.308354        -167.126          0.94456         102.014          0.94456         102.014          0.30775        -167.063
78.465                  0.308475        -167.234         0.944508         101.903         0.944508         101.903         0.307868        -167.172
78.5                    0.308596        -167.343         0.944458         101.793         0.944458         101.793         0.307986        -167.281
78.535                  0.308717        -167.452         0.944408         101.683         0.944408         101.683         0.308104        -167.391
78.57                   0.308838        -167.561         0.944359         101.572         0.944359         101.572         0.308222          -167.5
78.605                  0.308958         -167.67         0.944311         101.462         0.944311         101.462          0.30834        -167.609
78.64                   0.309078        -167.779         0.944264         101.352         0.944264         101.352         0.308457        -167.719
78.675                  0.309198        -167.888         0.944218         101.242         0.944218         101.242         0.308575        -167.828
78.71                   0.309317        -167.998         0.944172         101.132         0.944172         101.132         0.308692        -167.938
78.745                  0.309436        -168.107         0.944128         101.022         0.944128         101.022         0.308809        -168.048
78.78                   0.309555        -168.216         0.944085         100.911         0.944085         100.911         0.308925        -168.158
78.815                  0.309674        -168.326         0.944042         100.801         0.944042         100.801         0.309042        -168.268
78.85                   0.309792        -168.435            0.944         100.691            0.944         100.691         0.309158        -168.378
78.885                   0.30991        -168.545          0.94396         100.582          0.94396         100.582         0.309274        -168.488
78.92                   0.310028        -168.655          0.94392         100.472          0.94392         100.472          0.30939        -168.598
78.955                  0.310146        -168.764         0.943881         100.362         0.943881         100.362         0.309506        -168.708
78.99                   0.310263        -168.874         0.943842         100.252         0.943842         100.252         0.309621        -168.818
79.025                   0.31038        -168.984         0.943805         100.142         0.943805         100.142         0.309736        -168.929
79.06                   0.310496        -169.094         0.943769         100.032         0.943769         100.032         0.309851        -169.039
79.095                  0.310612        -169.204         0.943733         99.9228         0.943733         99.9228         0.309966         -169.15
79.13                   0.310728        -169.314         0.943698         99.8131         0.943698         99.8131          0.31008         -169.26
79.165                  0.310844        -169.424         0.943664         99.7034         0.943664         99.7034         0.310194        -169.371
79.2                    0.310959        -169.534         0.943631         99.5938         0.943631         99.5938         0.310308        -169.482
79.235                  0.311074        -169.645         0.943599         99.4843         0.943599         99.4843         0.310422        -169.593
79.27                   0.311188        -169.755         0.943568         99.3748         0.943568         99.3748         0.310535        -169.703
79.305                  0.311303        -169.865         0.943537         99.2653         0.943537         99.2653         0.310648        -169.814
79.34                   0.311416        -169.976         0.943507         99.1558         0.943507         99.1558         0.310761        -169.925
79.375                   0.31153        -170.086         0.943478         99.0464         0.943478         99.0464         0.310874        -170.037
79.41                   0.311643        -170.197          0.94345          98.937          0.94345          98.937         0.310986        -170.148
79.445                  0.311756        -170.308         0.943423         98.8276         0.943423         98.8276         0.311098        -170.259
79.48                   0.311868        -170.418         0.943396         98.7183         0.943396         98.7183          0.31121         -170.37
79.515                   0.31198        -170.529          0.94337          98.609          0.94337          98.609         0.311322        -170.482
79.55                   0.312092         -170.64         0.943345         98.4997         0.943345         98.4997         0.311433        -170.593
79.585                  0.312204        -170.751         0.943321         98.3905         0.943321         98.3905         0.311544        -170.705
79.62                   0.312315        -170.862         0.943298         98.2813         0.943298         98.2813         0.311654        -170.816
79.655                  0.312425        -170.973         0.943275         98.1721         0.943275         98.1721         0.311765        -170.928
79.69                   0.312535        -171.084         0.943253          98.063         0.943253          98.063         0.311875         -171.04
79.725                  0.312645        -171.195         0.943232         97.9539         0.943232         97.9539         0.311985        -171.151
79.76                   0.312755        -171.307         0.943212         97.8448         0.943212         97.8448         0.312094        -171.263
79.795                  0.312864        -171.418         0.943192         97.7357         0.943192         97.7357         0.312203        -171.375
79.83                   0.312972        -171.529         0.943173         97.6267         0.943173         97.6267         0.312312        -171.487
79.865                   0.31308        -171.641         0.943155         97.5177         0.943155         97.5177          0.31242        -171.599
79.9                    0.313188        -171.752         0.943138         97.4087         0.943138         97.4087         0.312528        -171.711
79.935                  0.313296        -171.864         0.943121         97.2998         0.943121         97.2998         0.312636        -171.823
79.97                   0.313402        -171.975         0.943105         97.1909         0.943105         97.1909         0.312744        -171.936
80.005                  0.313509        -172.087          0.94309          97.082          0.94309          97.082         0.312851        -172.048
80.04                   0.313615        -172.198         0.943076         96.9731         0.943076         96.9731         0.312957         -172.16
80.075                  0.313721         -172.31         0.943062         96.8643         0.943062         96.8643         0.313064        -172.273
80.11                   0.313826        -172.422         0.943049         96.7555         0.943049         96.7555          0.31317        -172.385
80.145                  0.313931        -172.534         0.943037         96.6467         0.943037         96.6467         0.313275        -172.498
80.18                   0.314035        -172.646         0.943025          96.538         0.943025          96.538         0.313381         -172.61
80.215                  0.314139        -172.758         0.943014         96.4292         0.943014         96.4292         0.313486        -172.723
80.25                   0.314242         -172.87         0.943004         96.3205         0.943004         96.3205          0.31359        -172.835
80.285                  0.314345        -172.982         0.942995         96.2118         0.942995         96.2118         0.313694        -172.948
80.32                   0.314448        -173.094         0.942986         96.1032         0.942986         96.1032         0.313798        -173.061
80.355                   0.31455        -173.206         0.942978         95.9945         0.942978         95.9945         0.313901        -173.174
80.39                   0.314651        -173.318         0.942971         95.8859         0.942971         95.8859         0.314004        -173.287
80.425                  0.314752         -173.43         0.942964         95.7773         0.942964         95.7773         0.314107          -173.4
80.46                   0.314853        -173.543         0.942958         95.6688         0.942958         95.6688         0.314209        -173.513
80.495                  0.314953        -173.655         0.942953         95.5602         0.942953         95.5602         0.314311        -173.626
80.53                   0.315053        -173.767         0.942948         95.4517         0.942948         95.4517         0.314412        -173.739
80.565                  0.315152         -173.88         0.942944         95.3432         0.942944         95.3432         0.314513        -173.852
80.6                     0.31525        -173.992         0.942941         95.2347         0.942941         95.2347         0.314613        -173.965
80.635                  0.315348        -174.105         0.942938         95.1262         0.942938         95.1262         0.314713        -174.078
80.67                   0.315446        -174.217         0.942936         95.0178         0.942936         95.0178         0.314813        -174.192
80.705                  0.315543         -174.33         0.942935         94.9094         0.942935         94.9094         0.314912        -174.305
80.74                    0.31564        -174.443         0.942934          94.801         0.942934          94.801         0.315011        -174.418
80.775                  0.315736        -174.555         0.942934         94.6926         0.942934         94.6926         0.315109        -174.532
80.81                   0.315831        -174.668         0.942934         94.5842         0.942934         94.5842         0.315207        -174.645
80.845                  0.315926        -174.781         0.942936         94.4759         0.942936         94.4759         0.315304        -174.759
80.88                    0.31602        -174.894         0.942938         94.3675         0.942938         94.3675         0.315401        -174.872
80.915                  0.316114        -175.007          0.94294         94.2592          0.94294         94.2592         0.315497        -174.986
80.95                   0.316207         -175.12         0.942943         94.1509         0.942943         94.1509         0.315593          -175.1
80.985                    0.3163        -175.233         0.942947         94.0427         0.942947         94.0427         0.315688        -175.213
81.02                   0.316392        -175.346         0.942951         93.9344         0.942951         93.9344         0.315783        -175.327
81.055                  0.316484        -175.459         0.942956         93.8262         0.942956         93.8262         0.315878        -175.441
81.09                   0.316575        -175.572         0.942962         93.7179         0.942962         93.7179         0.315972        -175.554
81.125                  0.316665        -175.685         0.942968         93.6097         0.942968         93.6097         0.316065        -175.668
81.16                   0.316755        -175.798         0.942975         93.5015         0.942975         93.5015         0.316158        -175.782
81.195                  0.316844        -175.911         0.942982         93.3933         0.942982         93.3933          0.31625        -175.896
81.23                   0.316933        -176.024          0.94299         93.2852          0.94299         93.2852         0.316342         -176.01
81.265                  0.317021        -176.138         0.942999          93.177         0.942999          93.177         0.316433        -176.124
81.3                    0.317108        -176.251         0.943008         93.0689         0.943008         93.0689         0.316524        -176.238
81.335                  0.317195        -176.364         0.943018         92.9608         0.943018         92.9608         0.316614        -176.352
81.37                   0.317281        -176.478         0.943028         92.8527         0.943028         92.8527         0.316703        -176.466
81.405                  0.317366        -176.591         0.943039         92.7446         0.943039         92.7446         0.316792         -176.58
81.44                   0.317451        -176.705         0.943051         92.6365         0.943051         92.6365         0.316881        -176.694
81.475                  0.317536        -176.818         0.943063         92.5284         0.943063         92.5284         0.316969        -176.808
81.51                   0.317619        -176.931         0.943076         92.4204         0.943076         92.4204         0.317056        -176.923
81.545                  0.317702        -177.045         0.943089         92.3123         0.943089         92.3123         0.317143        -177.037
81.58                   0.317784        -177.159         0.943103         92.2043         0.943103         92.2043         0.317229        -177.151
81.615                  0.317866        -177.272         0.943117         92.0963         0.943117         92.0963         0.317315        -177.265
81.65                   0.317947        -177.386         0.943132         91.9882         0.943132         91.9882         0.317399         -177.38
81.685                  0.318027        -177.499         0.943148         91.8803         0.943148         91.8803         0.317484        -177.494
81.72                   0.318107        -177.613         0.943164         91.7723         0.943164         91.7723         0.317568        -177.608
81.755                  0.318186        -177.727         0.943181         91.6643         0.943181         91.6643         0.317651        -177.723
81.79                   0.318264        -177.841         0.943198         91.5563         0.943198         91.5563         0.317733        -177.837
81.825                  0.318342        -177.954         0.943215         91.4484         0.943215         91.4484         0.317815        -177.952
81.86                   0.318419        -178.068         0.943234         91.3404         0.943234         91.3404         0.317896        -178.066
81.895                  0.318495        -178.182         0.943253         91.2325         0.943253         91.2325         0.317977        -178.181