! TOUCHSTONE file generated by CST MICROWAVE STUDIO
! Date and time: Tue Feb 13 14:04:42 2024
! Project name: material_pared.cst
! Header version: 2018
! Port assignment regex: !\s*Touchstone port\s*([0-9]+)\s*=\s*(CST MWS port|CST DS port)\s*([0-9]+|Zmin|Zmax)\s*\(\"(.*)\"\)(\s*mode\s*([0-9]+))?.*
! Touchstone port assignment:
! Touchstone port 1 = CST MWS port 1 ("")
! Touchstone port 2 = CST MWS port 2 ("")
# GHz S MA R 376.7
75                      0.312716        -160.145         0.949847         110.224         0.949847         110.224         0.312716        -159.407
75.035                  0.312943        -160.592         0.949772         109.945         0.949772         109.945         0.312944        -159.518
75.07                   0.313169        -161.038         0.949697         109.666         0.949697         109.666          0.31317        -159.629
75.105                  0.313394        -161.485         0.949623         109.387         0.949623         109.387         0.313396         -159.74
75.14                   0.313618        -161.931         0.949549         109.108         0.949549         109.108          0.31362        -159.851
75.175                   0.31384        -162.378         0.949476         108.829         0.949476         108.829         0.313843        -159.961
75.21                   0.314062        -162.824         0.949402         108.551         0.949402         108.551         0.314064        -160.072
75.245                  0.314282        -163.271         0.949329         108.272         0.949329         108.272         0.314285        -160.183
75.28                   0.314501        -163.718         0.949257         107.993         0.949257         107.993         0.314504        -160.294
75.315                  0.314718        -164.164         0.949185         107.714         0.949185         107.714         0.314722        -160.404
75.35                   0.314935        -164.611         0.949113         107.435         0.949113         107.435         0.314939        -160.515
75.385                   0.31515        -165.057         0.949041         107.157         0.949041         107.157         0.315154        -160.626
75.42                   0.315364        -165.504          0.94897         106.878          0.94897         106.878         0.315368        -160.736
75.455                  0.315577         -165.95         0.948899         106.599         0.948899         106.599         0.315582        -160.847
75.49                   0.315789        -166.397         0.948829         106.321         0.948829         106.321         0.315793        -160.958
75.525                     0.316        -166.843         0.948759         106.042         0.948759         106.042         0.316004        -161.068
75.56                   0.316209         -167.29         0.948689         105.763         0.948689         105.763         0.316214        -161.179
75.595                  0.316417        -167.736          0.94862         105.485          0.94862         105.485         0.316422         -161.29
75.63                   0.316624        -168.183         0.948551         105.206         0.948551         105.206         0.316629          -161.4
75.665                   0.31683         -168.63         0.948482         104.928         0.948482         104.928         0.316835        -161.511
75.7                    0.317034        -169.076         0.948414         104.649         0.948414         104.649         0.317039        -161.621
75.735                  0.317238        -169.523         0.948346         104.371         0.948346         104.371         0.317242        -161.732
75.77                    0.31744        -169.969         0.948278         104.092         0.948278         104.092         0.317445        -161.842
75.805                  0.317641        -170.416         0.948211         103.814         0.948211         103.814         0.317645        -161.953
75.84                    0.31784        -170.862         0.948144         103.535         0.948144         103.535         0.317845        -162.063
75.875                  0.318039        -171.308         0.948077         103.257         0.948077         103.257         0.318044        -162.174
75.91                   0.318236        -171.755         0.948011         102.978         0.948011         102.978         0.318241        -162.284
75.945                  0.318432        -172.201         0.947945           102.7         0.947945           102.7         0.318437        -162.395
75.98                   0.318627        -172.648          0.94788         102.421          0.94788         102.421         0.318632        -162.505
76.015                  0.318821        -173.094         0.947815         102.143         0.947815         102.143         0.318825        -162.615
76.05                   0.319013        -173.541          0.94775         101.865          0.94775         101.865         0.319017        -162.726
76.085                  0.319204        -173.987         0.947685         101.586         0.947685         101.586         0.319208        -162.836
76.12                   0.319394        -174.433         0.947621         101.308         0.947621         101.308         0.319398        -162.946
76.155                  0.319583         -174.88         0.947558          101.03         0.947558          101.03         0.319587        -163.057
76.19                    0.31977        -175.326         0.947495         100.751         0.947495         100.751         0.319774        -163.167
76.225                  0.319957        -175.773         0.947432         100.473         0.947432         100.473         0.319961        -163.277
76.26                   0.320142        -176.219         0.947369         100.195         0.947369         100.195         0.320146        -163.388
76.295                  0.320326        -176.665         0.947307         99.9165         0.947307         99.9165         0.320329        -163.498
76.33                   0.320508        -177.112         0.947245         99.6383         0.947245         99.6383         0.320512        -163.608
76.365                   0.32069        -177.558         0.947184           99.36         0.947184           99.36         0.320693        -163.719
76.4                     0.32087        -178.004         0.947123         99.0818         0.947123         99.0818         0.320873        -163.829
76.435                  0.321049        -178.451         0.947062         98.8036         0.947062         98.8036         0.321052        -163.939
76.47                   0.321227        -178.897         0.947002         98.5255         0.947002         98.5255         0.321229        -164.049
76.505                  0.321403        -179.343         0.946942         98.2473         0.946942         98.2473         0.321406        -164.159
76.54                   0.321578        -179.789         0.946883         97.9691         0.946883         97.9691         0.321581         -164.27
76.575                  0.321752         179.764         0.946824          97.691         0.946824          97.691         0.321755         -164.38
76.61                   0.321925         179.318         0.946765         97.4129         0.946765         97.4129         0.321927         -164.49
76.645                  0.322097         178.872         0.946707         97.1348         0.946707         97.1348         0.322099          -164.6
76.68                   0.322267         178.426         0.946649         96.8567         0.946649         96.8567         0.322269         -164.71
76.715                  0.322436         177.979         0.946591         96.5786         0.946591         96.5786         0.322438         -164.82
76.75                   0.322604         177.533         0.946534         96.3006         0.946534         96.3006         0.322606         -164.93
76.785                  0.322771         177.087         0.946477         96.0225         0.946477         96.0225         0.322772         -165.04
76.82                   0.322936         176.641         0.946421         95.7445         0.946421         95.7445         0.322937         -165.15
76.855                    0.3231         176.195         0.946365         95.4665         0.946365         95.4665         0.323101         -165.26
76.89                   0.323263         175.749         0.946309         95.1885         0.946309         95.1885         0.323264         -165.37
76.925                  0.323425         175.302         0.946254         94.9105         0.946254         94.9105         0.323426         -165.48
76.96                   0.323585         174.856         0.946199         94.6325         0.946199         94.6325         0.323586         -165.59
76.995                  0.323745          174.41         0.946144         94.3545         0.946144         94.3545         0.323745          -165.7
77.03                   0.323903         173.964          0.94609         94.0766          0.94609         94.0766         0.323903         -165.81
77.065                  0.324059         173.518         0.946037         93.7986         0.946037         93.7986          0.32406         -165.92
77.1                    0.324215         173.072         0.945983         93.5207         0.945983         93.5207         0.324215         -166.03
77.135                  0.324369         172.626         0.945931         93.2428         0.945931         93.2428         0.324369         -166.14
77.17                   0.324522          172.18         0.945878         92.9649         0.945878         92.9649         0.324522         -166.25
77.205                  0.324674         171.734         0.945826          92.687         0.945826          92.687         0.324674         -166.36
77.24                   0.324825         171.288         0.945774         92.4091         0.945774         92.4091         0.324824         -166.47
77.275                  0.324974         170.842         0.945723         92.1313         0.945723         92.1313         0.324973         -166.58
77.31                   0.325122         170.396         0.945672         91.8534         0.945672         91.8534         0.325121         -166.69
77.345                  0.325269          169.95         0.945622         91.5756         0.945622         91.5756         0.325268          -166.8
77.38                   0.325414         169.504         0.945572         91.2977         0.945572         91.2977         0.325414         -166.91
77.415                  0.325559         169.058         0.945522         91.0199         0.945522         91.0199         0.325558        -167.019
77.45                   0.325702         168.612         0.945473         90.7421         0.945473         90.7421         0.325701        -167.129
77.485                  0.325844         168.166         0.945424         90.4643         0.945424         90.4643         0.325843        -167.239
77.52                   0.325984          167.72         0.945375         90.1865         0.945375         90.1865         0.325983        -167.349
77.555                  0.326124         167.274         0.945327         89.9088         0.945327         89.9088         0.326122        -167.459
77.59                   0.326262         166.829          0.94528          89.631          0.94528          89.631         0.326261        -167.568
77.625                  0.326399         166.383         0.945232         89.3533         0.945232         89.3533         0.326397        -167.678
77.66                   0.326534         165.937         0.945185         89.0755         0.945185         89.0755         0.326533        -167.788
77.695                  0.326669         165.491         0.945139         88.7978         0.945139         88.7978         0.326667        -167.898
77.73                   0.326802         165.045         0.945093         88.5201         0.945093         88.5201           0.3268        -168.007
77.765                  0.326934         164.599         0.945047         88.2424         0.945047         88.2424         0.326932        -168.117
77.8                    0.327065         164.154         0.945002         87.9647         0.945002         87.9647         0.327063        -168.227
77.835                  0.327194         163.708         0.944957          87.687         0.944957          87.687         0.327192        -168.337
77.87                   0.327322         163.262         0.944913         87.4093         0.944913         87.4093          0.32732        -168.446
77.905                  0.327449         162.816         0.944869         87.1317         0.944869         87.1317         0.327447        -168.556
77.94                   0.327575         162.371         0.944825          86.854         0.944825          86.854         0.327573        -168.666
77.975                  0.327699         161.925         0.944782         86.5764         0.944782         86.5764         0.327697        -168.775
78.01                   0.327823         161.479         0.944739         86.2987         0.944739         86.2987         0.327821        -168.885
78.045                  0.327945         161.033         0.944697         86.0211         0.944697         86.0211         0.327943        -168.995
78.08                   0.328065         160.588         0.944655         85.7435         0.944655         85.7435         0.328063        -169.104
78.115                  0.328185         160.142         0.944614         85.4659         0.944614         85.4659         0.328183        -169.214
78.15                   0.328303         159.696         0.944573         85.1883         0.944573         85.1883         0.328301        -169.323
78.185                   0.32842         159.251         0.944532         84.9107         0.944532         84.9107         0.328418        -169.433
78.22                   0.328536         158.805         0.944492         84.6331         0.944492         84.6331         0.328534        -169.543
78.255                   0.32865         158.359         0.944452         84.3555         0.944452         84.3555         0.328648        -169.652
78.29                   0.328764         157.914         0.944412          84.078         0.944412          84.078         0.328762        -169.762
78.325                  0.328876         157.468         0.944373         83.8004         0.944373         83.8004         0.328874        -169.871
78.36                   0.328987         157.023         0.944335         83.5229         0.944335         83.5229         0.328984        -169.981
78.395                  0.329096         156.577         0.944297         83.2454         0.944297         83.2454         0.329094         -170.09
78.43                   0.329204         156.131         0.944259         82.9678         0.944259         82.9678         0.329202          -170.2
78.465                  0.329311         155.686         0.944221         82.6903         0.944221         82.6903         0.329309         -170.31
78.5                    0.329417          155.24         0.944185         82.4128         0.944185         82.4128         0.329415        -170.419
78.535                  0.329522         154.795         0.944148         82.1353         0.944148         82.1353          0.32952        -170.529
78.57                   0.329625         154.349         0.944112         81.8578         0.944112         81.8578         0.329623        -170.638
78.605                  0.329727         153.904         0.944076         81.5803         0.944076         81.5803         0.329725        -170.747
78.64                   0.329828         153.458         0.944041         81.3029         0.944041         81.3029         0.329826        -170.857
78.675                  0.329928         153.013         0.944006         81.0254         0.944006         81.0254         0.329926        -170.966
78.71                   0.330026         152.567         0.943972         80.7479         0.943972         80.7479         0.330024        -171.076
78.745                  0.330123         152.122         0.943938         80.4705         0.943938         80.4705         0.330121        -171.185
78.78                   0.330219         151.676         0.943904          80.193         0.943904          80.193         0.330217        -171.295
78.815                  0.330314         151.231         0.943871         79.9156         0.943871         79.9156         0.330312        -171.404
78.85                   0.330407         150.786         0.943839         79.6382         0.943839         79.6382         0.330405        -171.514
78.885                  0.330499          150.34         0.943806         79.3607         0.943806         79.3607         0.330497        -171.623
78.92                    0.33059         149.895         0.943774         79.0833         0.943774         79.0833         0.330588        -171.732
78.955                   0.33068         149.449         0.943743         78.8059         0.943743         78.8059         0.330678        -171.842
78.99                   0.330768         149.004         0.943712         78.5285         0.943712         78.5285         0.330767        -171.951
79.025                  0.330855         148.559         0.943681         78.2511         0.943681         78.2511         0.330854        -172.061
79.06                   0.330941         148.113         0.943651         77.9737         0.943651         77.9737          0.33094         -172.17
79.095                  0.331026         147.668         0.943622         77.6964         0.943622         77.6964         0.331024        -172.279
79.13                   0.331109         147.222         0.943592          77.419         0.943592          77.419         0.331108        -172.389
79.165                  0.331192         146.777         0.943563         77.1416         0.943563         77.1416          0.33119        -172.498
79.2                    0.331273         146.332         0.943535         76.8643         0.943535         76.8643         0.331271        -172.607
79.235                  0.331352         145.886         0.943507         76.5869         0.943507         76.5869         0.331351        -172.717
79.27                   0.331431         145.441         0.943479         76.3096         0.943479         76.3096          0.33143        -172.826
79.305                  0.331508         144.996         0.943452         76.0322         0.943452         76.0322         0.331507        -172.935
79.34                   0.331584         144.551         0.943426         75.7549         0.943426         75.7549         0.331583        -173.045
79.375                  0.331659         144.105         0.943399         75.4776         0.943399         75.4776         0.331658        -173.154
79.41                   0.331732          143.66         0.943373         75.2002         0.943373         75.2002         0.331731        -173.263
79.445                  0.331804         143.215         0.943348         74.9229         0.943348         74.9229         0.331804        -173.373
79.48                   0.331876         142.769         0.943323         74.6456         0.943323         74.6456         0.331875        -173.482
79.515                  0.331945         142.324         0.943298         74.3683         0.943298         74.3683         0.331944        -173.591
79.55                   0.332014         141.879         0.943274          74.091         0.943274          74.091         0.332013          -173.7
79.585                  0.332081         141.434         0.943251         73.8137         0.943251         73.8137          0.33208         -173.81
79.62                   0.332147         140.988         0.943227         73.5364         0.943227         73.5364         0.332146        -173.919
79.655                  0.332212         140.543         0.943205         73.2591         0.943205         73.2591         0.332211        -174.028
79.69                   0.332276         140.098         0.943182         72.9819         0.943182         72.9819         0.332275        -174.138
79.725                  0.332338         139.653          0.94316         72.7046          0.94316         72.7046         0.332337        -174.247
79.76                   0.332399         139.208         0.943139         72.4273         0.943139         72.4273         0.332399        -174.356
79.795                  0.332459         138.762         0.943118         72.1501         0.943118         72.1501         0.332458        -174.465
79.83                   0.332518         138.317         0.943097         71.8728         0.943097         71.8728         0.332517        -174.574
79.865                  0.332575         137.872         0.943077         71.5956         0.943077         71.5956         0.332575        -174.684
79.9                    0.332631         137.427         0.943057         71.3183         0.943057         71.3183         0.332631        -174.793
79.935                  0.332686         136.982         0.943037         71.0411         0.943037         71.0411         0.332686        -174.902
79.97                    0.33274         136.536         0.943019         70.7638         0.943019         70.7638         0.332739        -175.011
80.005                  0.332792         136.091            0.943         70.4866            0.943         70.4866         0.332792         -175.12
80.04                   0.332843         135.646         0.942982         70.2094         0.942982         70.2094         0.332843         -175.23
80.075                  0.332893         135.201         0.942964         69.9321         0.942964         69.9321         0.332893        -175.339
80.11                   0.332942         134.756         0.942947         69.6549         0.942947         69.6549         0.332942        -175.448
80.145                  0.332989         134.311          0.94293         69.3777          0.94293         69.3777         0.332989        -175.557
80.18                   0.333036         133.866         0.942914         69.1005         0.942914         69.1005         0.333036        -175.666
80.215                  0.333081          133.42         0.942898         68.8233         0.942898         68.8233         0.333081        -175.776
80.25                   0.333124         132.975         0.942883         68.5461         0.942883         68.5461         0.333124        -175.885
80.285                  0.333167          132.53         0.942868         68.2689         0.942868         68.2689         0.333167        -175.994
80.32                   0.333208         132.085         0.942853         67.9917         0.942853         67.9917         0.333208        -176.103
80.355                  0.333248          131.64         0.942839         67.7145         0.942839         67.7145         0.333248        -176.212
80.39                   0.333287         131.195         0.942825         67.4373         0.942825         67.4373         0.333287        -176.321
80.425                  0.333325          130.75         0.942812         67.1601         0.942812         67.1601         0.333325         -176.43
80.46                   0.333361         130.305         0.942799         66.8829         0.942799         66.8829         0.333361         -176.54
80.495                  0.333396         129.859         0.942787         66.6057         0.942787         66.6057         0.333396        -176.649
80.53                    0.33343         129.414         0.942775         66.3285         0.942775         66.3285          0.33343        -176.758
80.565                  0.333463         128.969         0.942763         66.0514         0.942763         66.0514         0.333463        -176.867
80.6                    0.333494         128.524         0.942752         65.7742         0.942752         65.7742         0.333494        -176.976
80.635                  0.333524         128.079         0.942742          65.497         0.942742          65.497         0.333524        -177.085
80.67                   0.333553         127.634         0.942731         65.2198         0.942731         65.2198         0.333553        -177.194
80.705                  0.333581         127.189         0.942722         64.9427         0.942722         64.9427         0.333581        -177.303
80.74                   0.333607         126.744         0.942712         64.6655         0.942712         64.6655         0.333607        -177.413
80.775                  0.333632         126.299         0.942703         64.3884         0.942703         64.3884         0.333632        -177.522
80.81                   0.333656         125.854         0.942695         64.1112         0.942695         64.1112         0.333656        -177.631
80.845                  0.333679         125.408         0.942687          63.834         0.942687          63.834         0.333679         -177.74
80.88                   0.333701         124.963         0.942679         63.5569         0.942679         63.5569         0.333701        -177.849
80.915                  0.333721         124.518         0.942672         63.2797         0.942672         63.2797         0.333721        -177.958
80.95                    0.33374         124.073         0.942665         63.0026         0.942665         63.0026          0.33374        -178.067
80.985                  0.333758         123.628         0.942659         62.7254         0.942659         62.7254         0.333758        -178.176
81.02                   0.333774         123.183         0.942653         62.4483         0.942653         62.4483         0.333774        -178.285
81.055                   0.33379         122.738         0.942648         62.1711         0.942648         62.1711         0.333789        -178.394
81.09                   0.333804         122.293         0.942643          61.894         0.942643          61.894         0.333803        -178.504
81.125                  0.333817         121.848         0.942638         61.6169         0.942638         61.6169         0.333816        -178.613
81.16                   0.333828         121.403         0.942634         61.3397         0.942634         61.3397         0.333828        -178.722
81.195                  0.333839         120.958         0.942631         61.0626         0.942631         61.0626         0.333838        -178.831
81.23                   0.333848         120.513         0.942627         60.7854         0.942627         60.7854         0.333847         -178.94
81.265                  0.333856         120.068         0.942625         60.5083         0.942625         60.5083         0.333855        -179.049
81.3                    0.333862         119.622         0.942622         60.2312         0.942622         60.2312         0.333862        -179.158
81.335                  0.333868         119.177          0.94262          59.954          0.94262          59.954         0.333867        -179.267
81.37                   0.333872         118.732         0.942619         59.6769         0.942619         59.6769         0.333871        -179.376
81.405                  0.333875         118.287         0.942618         59.3997         0.942618         59.3997         0.333874        -179.485
81.44                   0.333877         117.842         0.942617         59.1226         0.942617         59.1226         0.333876        -179.594
81.475                  0.333877         117.397         0.942617         58.8455         0.942617         58.8455         0.333876        -179.703
81.51                   0.333877         116.952         0.942617         58.5683         0.942617         58.5683         0.333876        -179.812
81.545                  0.333875         116.507         0.942618         58.2912         0.942618         58.2912         0.333874        -179.921
81.58                   0.333871         116.062         0.942619         58.0141         0.942619         58.0141          0.33387          179.97
81.615                  0.333867         115.617         0.942621         57.7369         0.942621         57.7369         0.333866          179.86
81.65                   0.333861         115.172         0.942623         57.4598         0.942623         57.4598          0.33386         179.751
81.685                  0.333854         114.726         0.942625         57.1827         0.942625         57.1827         0.333853         179.642
81.72                   0.333846         114.281         0.942628         56.9055         0.942628         56.9055         0.333845         179.533
81.755                  0.333837         113.836         0.942632         56.6284         0.942632         56.6284         0.333836         179.424
81.79                   0.333826         113.391         0.942635         56.3513         0.942635         56.3513         0.333825         179.315
81.825                  0.333815         112.946          0.94264         56.0741          0.94264         56.0741         0.333813         179.206
81.86                   0.333802         112.501         0.942644          55.797         0.942644          55.797           0.3338         179.097
81.895                  0.333787         112.056         0.942649         55.5199         0.942649         55.5199         0.333786         178.988