! TOUCHSTONE file generated by CST MICROWAVE STUDIO
! Date and time: Wed Feb 14 23:06:00 2024
! Project name: material_rotado.cst
! Parameters = {angY=0.75}
! Header version: 2018
! Port assignment regex: !\s*Touchstone port\s*([0-9]+)\s*=\s*(CST MWS port|CST DS port)\s*([0-9]+|Zmin|Zmax)\s*\(\"(.*)\"\)(\s*mode\s*([0-9]+))?.*
! Touchstone port assignment:
! Touchstone port 1 = CST MWS port 1 ("")
! Touchstone port 2 = CST MWS port 2 ("")
# GHz S MA R 376.7
75                      0.312868        -171.505          0.94988         110.143         0.949661         110.146         0.312761        -148.209
75.035                  0.313101        -171.958         0.949799         109.696         0.949589           109.7         0.312997        -148.649
75.07                   0.313332         -172.41          0.94972          109.25         0.949518         109.254         0.313231        -149.089
75.105                  0.313563        -172.862         0.949641         108.804         0.949446         108.807         0.313464        -149.528
75.14                   0.313792        -173.314         0.949562         108.358         0.949375         108.361         0.313696        -149.968
75.175                  0.314019        -173.767         0.949484         107.911         0.949304         107.914         0.313926        -150.408
75.21                   0.314245        -174.219         0.949406         107.465         0.949234         107.468         0.314155        -150.848
75.245                   0.31447        -174.671         0.949329         107.019         0.949164         107.022         0.314382        -151.288
75.28                   0.314693        -175.123         0.949253         106.572         0.949094         106.575         0.314608        -151.728
75.315                  0.314914        -175.576         0.949177         106.126         0.949024         106.129         0.314832        -152.168
75.35                   0.315135        -176.028         0.949101          105.68         0.948955         105.683         0.315055        -152.608
75.385                  0.315354         -176.48         0.949026         105.234         0.948886         105.236         0.315277        -153.049
75.42                   0.315571        -176.932         0.948951         104.787         0.948818          104.79         0.315497        -153.489
75.455                  0.315787        -177.384         0.948877         104.341          0.94875         104.343         0.315715        -153.929
75.49                   0.316001        -177.836         0.948803         103.895         0.948682         103.897         0.315932        -154.369
75.525                  0.316215        -178.289          0.94873         103.449         0.948614         103.451         0.316148        -154.809
75.56                   0.316426        -178.741         0.948658         103.002         0.948547         103.004         0.316362         -155.25
75.595                  0.316636        -179.193         0.948586         102.556          0.94848         102.558         0.316575         -155.69
75.63                   0.316845        -179.645         0.948514          102.11         0.948414         102.112         0.316786         -156.13
75.665                  0.317053         179.903         0.948443         101.663         0.948347         101.665         0.316996        -156.571
75.7                    0.317259         179.451         0.948372         101.217         0.948282         101.219         0.317204        -157.011
75.735                  0.317463         178.999         0.948302         100.771         0.948216         100.773         0.317411        -157.452
75.77                   0.317666         178.547         0.948232         100.325         0.948151         100.326         0.317617        -157.892
75.805                  0.317868         178.094         0.948163         99.8785         0.948086         99.8799         0.317821        -158.333
75.84                   0.318068         177.642         0.948094         99.4322         0.948022         99.4336         0.318023        -158.773
75.875                  0.318267          177.19         0.948026          98.986         0.947958         98.9873         0.318224        -159.214
75.91                   0.318465         176.738         0.947958         98.5398         0.947894          98.541         0.318424        -159.654
75.945                  0.318661         176.286          0.94789         98.0935          0.94783         98.0947         0.318622        -160.095
75.98                   0.318856         175.834         0.947824         97.6473         0.947767         97.6484         0.318819        -160.535
76.015                  0.319049         175.382         0.947757         97.2011         0.947705         97.2021         0.319014        -160.976
76.05                   0.319241          174.93         0.947691         96.7549         0.947642         96.7559         0.319208        -161.416
76.085                  0.319431         174.478         0.947626         96.3087          0.94758         96.3096         0.319401        -161.857
76.12                    0.31962         174.026         0.947561         95.8625         0.947519         95.8634         0.319592        -162.297
76.155                  0.319808         173.575         0.947496         95.4164         0.947457         95.4171         0.319781        -162.738
76.19                   0.319994         173.123         0.947432         94.9702         0.947396         94.9709         0.319969        -163.179
76.225                  0.320179         172.671         0.947369          94.524         0.947336         94.5247         0.320156        -163.619
76.26                   0.320362         172.219         0.947306         94.0779         0.947276         94.0785         0.320341         -164.06
76.295                  0.320544         171.767         0.947243         93.6317         0.947216         93.6323         0.320525          -164.5
76.33                   0.320725         171.315         0.947181         93.1856         0.947156         93.1861         0.320707        -164.941
76.365                  0.320904         170.863          0.94712         92.7395         0.947097         92.7399         0.320888        -165.382
76.4                    0.321082         170.411         0.947058         92.2934         0.947039         92.2938         0.321068        -165.822
76.435                  0.321259          169.96         0.946998         91.8472          0.94698         91.8476         0.321246        -166.263
76.47                   0.321434         169.508         0.946937         91.4011         0.946922         91.4015         0.321423        -166.704
76.505                  0.321607         169.056         0.946878         90.9551         0.946865         90.9553         0.321598        -167.144
76.54                    0.32178         168.604         0.946818          90.509         0.946808         90.5092         0.321772        -167.585
76.575                   0.32195         168.152          0.94676         90.0629         0.946751         90.0631         0.321944        -168.025
76.61                    0.32212         167.701         0.946701         89.6169         0.946694          89.617         0.322115        -168.466
76.645                  0.322288         167.249         0.946643         89.1708         0.946638         89.1709         0.322284        -168.907
76.68                   0.322455         166.797         0.946586         88.7248         0.946583         88.7249         0.322452        -169.347
76.715                   0.32262         166.346         0.946529         88.2788         0.946527         88.2788         0.322619        -169.788
76.75                   0.322784         165.894         0.946473         87.8328         0.946473         87.8328         0.322784        -170.228
76.785                  0.322947         165.442         0.946417         87.3868         0.946418         87.3867         0.322948        -170.669
76.82                   0.323108         164.991         0.946361         86.9408         0.946364         86.9407         0.323111         -171.11
76.855                  0.323268         164.539         0.946306         86.4948          0.94631         86.4947         0.323272         -171.55
76.89                   0.323427         164.087         0.946251         86.0488         0.946257         86.0487         0.323431        -171.991
76.925                  0.323584         163.636         0.946197         85.6029         0.946204         85.6027         0.323589        -172.431
76.96                    0.32374         163.184         0.946143         85.1569         0.946151         85.1568         0.323746        -172.872
76.995                  0.323894         162.733          0.94609          84.711         0.946099         84.7108         0.323901        -173.312
77.03                   0.324047         162.281         0.946037         84.2651         0.946048         84.2649         0.324055        -173.753
77.065                  0.324199          161.83         0.945985         83.8192         0.945996          83.819         0.324208        -174.193
77.1                    0.324349         161.378         0.945933         83.3733         0.945945          83.373         0.324359        -174.634
77.135                  0.324498         160.927         0.945882         82.9274         0.945895         82.9271         0.324509        -175.074
77.17                   0.324646         160.475         0.945831         82.4816         0.945845         82.4813         0.324657        -175.515
77.205                  0.324792         160.024          0.94578         82.0357         0.945795         82.0354         0.324804        -175.955
77.24                   0.324937         159.572          0.94573         81.5899         0.945746         81.5895          0.32495        -176.396
77.275                   0.32508         159.121         0.945681         81.1441         0.945697         81.1437         0.325094        -176.836
77.31                   0.325223         158.669         0.945632         80.6983         0.945648         80.6979         0.325237        -177.276
77.345                  0.325363         158.218         0.945583         80.2525           0.9456         80.2521         0.325378        -177.717
77.38                   0.325503         157.767         0.945535         79.8067         0.945552         79.8063         0.325518        -178.157
77.415                  0.325641         157.315         0.945487         79.3609         0.945505         79.3605         0.325657        -178.597
77.45                   0.325778         156.864          0.94544         78.9151         0.945458         78.9147         0.325794        -179.038
77.485                  0.325913         156.413         0.945393         78.4694         0.945412          78.469          0.32593        -179.478
77.52                   0.326047         155.961         0.945347         78.0237         0.945366         78.0232         0.326065        -179.918
77.555                   0.32618          155.51         0.945301          77.578          0.94532         77.5775         0.326198         179.642
77.59                   0.326312         155.059         0.945255         77.1322         0.945275         77.1318         0.326329         179.201
77.625                  0.326442         154.607          0.94521         76.6866          0.94523         76.6861          0.32646         178.761
77.66                   0.326571         154.156         0.945166         76.2409         0.945185         76.2404         0.326589         178.321
77.695                  0.326698         153.705         0.945122         75.7952         0.945142         75.7947         0.326716         177.881
77.73                   0.326824         153.253         0.945078         75.3496         0.945098         75.3491         0.326843         177.441
77.765                  0.326949         152.802         0.945035         74.9039         0.945055         74.9034         0.326968             177
77.8                    0.327072         152.351         0.944992         74.4583         0.945012         74.4578         0.327091          176.56
77.835                  0.327194           151.9          0.94495         74.0127          0.94497         74.0122         0.327213          176.12
77.87                   0.327315         151.449         0.944908         73.5671         0.944928         73.5666         0.327334          175.68
77.905                  0.327435         150.997         0.944867         73.1215         0.944886          73.121         0.327454          175.24
77.94                   0.327553         150.546         0.944826          72.676         0.944845         72.6754         0.327572           174.8
77.975                   0.32767         150.095         0.944785         72.2304         0.944805         72.2299         0.327689          174.36
78.01                   0.327785         149.644         0.944745         71.7849         0.944765         71.7844         0.327804          173.92
78.045                  0.327899         149.193         0.944706         71.3393         0.944725         71.3388         0.327918          173.48
78.08                   0.328012         148.742         0.944666         70.8938         0.944686         70.8933         0.328031          173.04
78.115                  0.328124          148.29         0.944628         70.4483         0.944647         70.4478         0.328142         172.601
78.15                   0.328234         147.839          0.94459         70.0028         0.944608         70.0023         0.328252         172.161
78.185                  0.328343         147.388         0.944552         69.5573          0.94457         69.5569         0.328361         171.721
78.22                    0.32845         146.937         0.944514         69.1119         0.944533         69.1114         0.328469         171.281
78.255                  0.328556         146.486         0.944478         68.6664         0.944495          68.666         0.328575         170.841
78.29                   0.328661         146.035         0.944441          68.221         0.944459         68.2205         0.328679         170.401
78.325                  0.328765         145.584         0.944405         67.7756         0.944422         67.7751         0.328783         169.962
78.36                   0.328867         145.133          0.94437         67.3302         0.944387         67.3297         0.328885         169.522
78.395                  0.328968         144.682         0.944335         66.8848         0.944351         66.8843         0.328985         169.082
78.43                   0.329068         144.231           0.9443         66.4394         0.944316         66.4389         0.329085         168.643
78.465                  0.329167          143.78         0.944266          65.994         0.944282         65.9936         0.329183         168.203
78.5                    0.329264         143.329         0.944232         65.5487         0.944247         65.5482          0.32928         167.763
78.535                  0.329359         142.878         0.944199         65.1033         0.944214         65.1029         0.329375         167.324
78.57                   0.329454         142.427         0.944166          64.658          0.94418         64.6576         0.329469         166.884
78.605                  0.329547         141.976         0.944134         64.2126         0.944148         64.2123         0.329562         166.445
78.64                   0.329639         141.525         0.944102         63.7673         0.944115          63.767         0.329654         166.005
78.675                   0.32973         141.074          0.94407          63.322         0.944083         63.3217         0.329744         165.566
78.71                   0.329819         140.623         0.944039         62.8768         0.944052         62.8764         0.329833         165.126
78.745                  0.329907         140.172         0.944009         62.4315         0.944021         62.4311          0.32992         164.687
78.78                   0.329994         139.721         0.943979         61.9862          0.94399         61.9859         0.330006         164.247
78.815                  0.330079          139.27         0.943949          61.541          0.94396         61.5406         0.330091         163.808
78.85                   0.330163         138.819          0.94392         61.0957          0.94393         61.0954         0.330175         163.369
78.885                  0.330246         138.368         0.943891         60.6505         0.943901         60.6502         0.330257         162.929
78.92                   0.330327         137.917         0.943862         60.2053         0.943872          60.205         0.330338          162.49
78.955                  0.330408         137.466         0.943835         59.7601         0.943844         59.7598         0.330418         162.051
78.99                   0.330487         137.015         0.943807         59.3149         0.943816         59.3146         0.330496         161.611
79.025                  0.330564         136.564          0.94378         58.8697         0.943788         58.8694         0.330573         161.172
79.06                   0.330641         136.113         0.943754         58.4245         0.943761         58.4243         0.330649         160.733
79.095                  0.330716         135.662         0.943727         57.9794         0.943735         57.9791         0.330724         160.294
79.13                   0.330789         135.211         0.943702         57.5342         0.943708          57.534         0.330797         159.855
79.165                  0.330862          134.76         0.943677         57.0891         0.943683         57.0889         0.330869         159.415
79.2                    0.330933         134.309         0.943652         56.6439         0.943657         56.6438          0.33094         158.976
79.235                  0.331003         133.858         0.943628         56.1988         0.943633         56.1986         0.331009         158.537
79.27                   0.331072         133.407         0.943604         55.7537         0.943608         55.7535         0.331077         158.098
79.305                  0.331139         132.956          0.94358         55.3086         0.943584         55.3085         0.331144         157.659
79.34                   0.331205         132.505         0.943557         54.8635         0.943561         54.8634         0.331209          157.22
79.375                   0.33127         132.054         0.943535         54.4184         0.943538         54.4183         0.331274         156.781
79.41                   0.331334         131.603         0.943513         53.9733         0.943515         53.9733         0.331336         156.342
79.445                  0.331396         131.153         0.943491         53.5283         0.943493         53.5282         0.331398         155.903
79.48                   0.331457         130.702          0.94347         53.0832         0.943471         53.0832         0.331459         155.464
79.515                  0.331516         130.251         0.943449         52.6382          0.94345         52.6381         0.331518         155.025
79.55                   0.331575           129.8         0.943429         52.1931         0.943429         52.1931         0.331575         154.586
79.585                  0.331632         129.349         0.943409         51.7481         0.943409         51.7481         0.331632         154.147
79.62                   0.331688         128.898         0.943389         51.3031         0.943389         51.3031         0.331687         153.709
79.655                  0.331743         128.447          0.94337          50.858         0.943369         50.8581         0.331741          153.27
79.69                   0.331796         127.996         0.943352          50.413          0.94335         50.4131         0.331794         152.831
79.725                  0.331848         127.545         0.943334          49.968         0.943332         49.9681         0.331846         152.392
79.76                   0.331899         127.094         0.943316          49.523         0.943314         49.5231         0.331896         151.953
79.795                  0.331948         126.643         0.943299         49.0781         0.943296         49.0781         0.331945         151.515
79.83                   0.331996         126.192         0.943282         48.6331         0.943279         48.6332         0.331992         151.076
79.865                  0.332043         125.741         0.943266         48.1881         0.943262         48.1882         0.332039         150.637
79.9                    0.332089          125.29          0.94325         47.7431         0.943246         47.7433         0.332084         150.198
79.935                  0.332133         124.839         0.943235         47.2982          0.94323         47.2983         0.332128          149.76
79.97                   0.332177         124.388          0.94322         46.8532         0.943215         46.8534          0.33217         149.321
80.005                  0.332218         123.937         0.943205         46.4083           0.9432         46.4084         0.332212         148.882
80.04                   0.332259         123.486         0.943191         45.9633         0.943185         45.9635         0.332252         148.444
80.075                  0.332298         123.035         0.943177         45.5184         0.943171         45.5186         0.332291         148.005
80.11                   0.332337         122.584         0.943164         45.0734         0.943158         45.0737         0.332328         147.567
80.145                  0.332373         122.133         0.943151         44.6285         0.943144         44.6288         0.332365         147.128
80.18                   0.332409         121.682         0.943139         44.1836         0.943132         44.1839           0.3324         146.689
80.215                  0.332443         121.231         0.943127         43.7387          0.94312         43.7389         0.332434         146.251
80.25                   0.332476          120.78         0.943116         43.2938         0.943108          43.294         0.332466         145.812
80.285                  0.332508         120.329         0.943105         42.8488         0.943096         42.8491         0.332498         145.374
80.32                   0.332539         119.877         0.943094         42.4039         0.943086         42.4043         0.332528         144.935
80.355                  0.332568         119.426         0.943084          41.959         0.943075         41.9594         0.332556         144.497
80.39                   0.332596         118.975         0.943074         41.5141         0.943065         41.5145         0.332584         144.058
80.425                  0.332623         118.524         0.943065         41.0692         0.943056         41.0696          0.33261          143.62
80.46                   0.332648         118.073         0.943056         40.6243         0.943047         40.6247         0.332636         143.181
80.495                  0.332672         117.622         0.943048         40.1795         0.943038         40.1798         0.332659         142.743
80.53                   0.332695         117.171          0.94304         39.7346          0.94303          39.735         0.332682         142.305
80.565                  0.332717          116.72         0.943033         39.2897         0.943022         39.2901         0.332703         141.866
80.6                    0.332737         116.268         0.943026         38.8448         0.943015         38.8452         0.332723         141.428
80.635                  0.332757         115.817         0.943019         38.3999         0.943008         38.4003         0.332742         140.989
80.67                   0.332775         115.366         0.943013          37.955         0.943002         37.9555          0.33276         140.551
80.705                  0.332791         114.915         0.943007         37.5101         0.942996         37.5106         0.332776         140.113
80.74                   0.332807         114.464         0.943002         37.0653          0.94299         37.0657         0.332792         139.674
80.775                  0.332821         114.012         0.942997         36.6204         0.942985         36.6209         0.332805         139.236
80.81                   0.332834         113.561         0.942993         36.1755          0.94298          36.176         0.332818         138.798
80.845                  0.332846          113.11         0.942989         35.7306         0.942976         35.7311          0.33283         138.359
80.88                   0.332856         112.659         0.942985         35.2857         0.942973         35.2862          0.33284         137.921
80.915                  0.332865         112.207         0.942982         34.8409         0.942969         34.8414         0.332849         137.483
80.95                   0.332873         111.756         0.942979          34.396         0.942967         34.3965         0.332857         137.044
80.985                   0.33288         111.305         0.942977         33.9511         0.942964         33.9516         0.332863         136.606
81.02                   0.332885         110.853         0.942975         33.5062         0.942962         33.5068         0.332868         136.168
81.055                   0.33289         110.402         0.942974         33.0613         0.942961         33.0619         0.332873          135.73
81.09                   0.332893          109.95         0.942973         32.6165          0.94296          32.617         0.332875         135.291
81.125                  0.332894         109.499         0.942973         32.1716         0.942959         32.1721         0.332877         134.853
81.16                   0.332895         109.048         0.942973         31.7267         0.942959         31.7272         0.332877         134.415
81.195                  0.332894         108.596         0.942973         31.2818         0.942959         31.2823         0.332877         133.977
81.23                   0.332892         108.145         0.942974         30.8369          0.94296         30.8374         0.332875         133.538
81.265                  0.332889         107.693         0.942975          30.392         0.942961         30.3926         0.332871           133.1
81.3                    0.332885         107.242         0.942977         29.9471         0.942963         29.9477         0.332867         132.662
81.335                  0.332879          106.79         0.942979         29.5022         0.942965         29.5028         0.332861         132.224
81.37                   0.332872         106.339         0.942981         29.0573         0.942968         29.0578         0.332854         131.786
81.405                  0.332864         105.887         0.942984         28.6123         0.942971         28.6129         0.332846         131.347
81.44                   0.332855         105.436         0.942988         28.1674         0.942974          28.168         0.332837         130.909
81.475                  0.332844         104.984         0.942992         27.7225         0.942978         27.7231         0.332826         130.471
81.51                   0.332832         104.532         0.942996         27.2776         0.942982         27.2782         0.332814         130.033
81.545                  0.332819         104.081            0.943         26.8326         0.942987         26.8332         0.332801         129.594
81.58                   0.332805         103.629         0.943006         26.3877         0.942992         26.3883         0.332787         129.156
81.615                  0.332789         103.178         0.943011         25.9427         0.942997         25.9433         0.332772         128.718
81.65                   0.332773         102.726         0.943017         25.4978         0.943003         25.4984         0.332755          128.28
81.685                  0.332755         102.274         0.943023         25.0528          0.94301         25.0534         0.332737         127.842
81.72                   0.332736         101.822          0.94303         24.6078         0.943017         24.6084         0.332718         127.403
81.755                  0.332715         101.371         0.943037         24.1629         0.943024         24.1635         0.332698         126.965
81.79                   0.332694         100.919         0.943045         23.7179         0.943032         23.7185         0.332677         126.527
81.825                  0.332671         100.467         0.943053         23.2729          0.94304         23.2735         0.332654         126.089
81.86                   0.332647         100.015         0.943062         22.8279         0.943048         22.8285          0.33263         125.651
81.895                  0.332622         99.5633          0.94307         22.3829         0.943057         22.3835         0.332605         125.212