! TOUCHSTONE file generated by CST MICROWAVE STUDIO
! Date and time: Thu Feb  8 16:53:17 2024
! Project name: material_desal.cst
! Header version: 2018
! Port assignment regex: !\s*Touchstone port\s*([0-9]+)\s*=\s*(CST MWS port|CST DS port)\s*([0-9]+|Zmin|Zmax)\s*\(\"(.*)\"\)(\s*mode\s*([0-9]+))?.*
! Touchstone port assignment:
! Touchstone port 1 = CST MWS port 1 ("")
! Touchstone port 2 = CST MWS port 2 ("")
# GHz S MA R 376.7
75                      0.684306        -139.502         0.535764         111.445         0.535764         111.445         0.684312        -139.502
75.035                  0.684779        -140.236         0.535276         110.858         0.535276         110.858         0.684794        -140.235
75.07                   0.685228        -140.966         0.534794         110.274         0.534794         110.274         0.685252        -140.965
75.105                  0.685656        -141.694         0.534319         109.693         0.534319         109.693         0.685687        -141.693
75.14                   0.686062        -142.419         0.533851         109.114         0.533851         109.114         0.686101        -142.417
75.175                  0.686449        -143.141          0.53339         108.538          0.53339         108.538         0.686494        -143.139
75.21                   0.686816         -143.86         0.532935         107.965         0.532935         107.965         0.686868        -143.859
75.245                  0.687166        -144.577         0.532488         107.393         0.532488         107.393         0.687223        -144.575
75.28                   0.687498        -145.291         0.532046         106.824         0.532046         106.824          0.68756        -145.289
75.315                  0.687814        -146.002         0.531612         106.258         0.531612         106.258         0.687881            -146
75.35                   0.688115        -146.711         0.531183         105.694         0.531183         105.694         0.688187        -146.709
75.385                  0.688402        -147.417         0.530761         105.132         0.530761         105.132         0.688478        -147.415
75.42                   0.688676         -148.12         0.530345         104.572         0.530345         104.572         0.688755        -148.118
75.455                  0.688937        -148.821         0.529936         104.014         0.529936         104.014          0.68902        -148.818
75.49                   0.689187        -149.519         0.529532         103.459         0.529532         103.459         0.689273        -149.516
75.525                  0.689426        -150.215         0.529135         102.905         0.529135         102.905         0.689515        -150.212
75.56                   0.689656        -150.908         0.528743         102.354         0.528743         102.354         0.689747        -150.905
75.595                  0.689877        -151.599         0.528357         101.804         0.528357         101.804          0.68997        -151.595
75.63                   0.690089        -152.288         0.527977         101.257         0.527977         101.257         0.690185        -152.283
75.665                  0.690295        -152.973         0.527602         100.711         0.527602         100.711         0.690393        -152.969
75.7                    0.690494        -153.657         0.527233         100.167         0.527233         100.167         0.690594        -153.652
75.735                  0.690688        -154.338         0.526868         99.6255         0.526868         99.6255          0.69079        -154.333
75.77                   0.690876        -155.017         0.526509         99.0854         0.526509         99.0854          0.69098        -155.012
75.805                  0.691061        -155.694         0.526155         98.5471         0.526155         98.5471         0.691167        -155.688
75.84                   0.691243        -156.368         0.525806         98.0106         0.525806         98.0106          0.69135        -156.362
75.875                  0.691422        -157.041         0.525461         97.4758         0.525461         97.4758          0.69153        -157.034
75.91                   0.691599        -157.711         0.525121         96.9427         0.525121         96.9427         0.691709        -157.704
75.945                  0.691775        -158.379         0.524786         96.4112         0.524786         96.4112         0.691886        -158.372
75.98                   0.691951        -159.045         0.524455         95.8815         0.524455         95.8815         0.692064        -159.037
76.015                  0.692126        -159.709         0.524128         95.3534         0.524128         95.3534         0.692241        -159.701
76.05                   0.692303        -160.371         0.523805         94.8269         0.523805         94.8269         0.692419        -160.363
76.085                  0.692482        -161.031         0.523486          94.302         0.523486          94.302         0.692599        -161.022
76.12                   0.692663        -161.689          0.52317         93.7787          0.52317         93.7787         0.692782         -161.68
76.155                  0.692846        -162.345         0.522858          93.257         0.522858          93.257         0.692967        -162.336
76.19                   0.693033            -163          0.52255         92.7368          0.52255         92.7368         0.693155         -162.99
76.225                  0.693224        -163.653         0.522245         92.2182         0.522245         92.2182         0.693348        -163.643
76.26                    0.69342        -164.304         0.521943         91.7012         0.521943         91.7012         0.693546        -164.294
76.295                  0.693621        -164.953         0.521645         91.1857         0.521645         91.1857         0.693749        -164.943
76.33                   0.693828        -165.601         0.521349         90.6717         0.521349         90.6717         0.693958        -165.591
76.365                  0.694041        -166.248         0.521056         90.1593         0.521056         90.1593         0.694173        -166.237
76.4                    0.694262        -166.893         0.520766         89.6484         0.520766         89.6484         0.694395        -166.882
76.435                  0.694489        -167.536         0.520478          89.139         0.520478          89.139         0.694625        -167.525
76.47                   0.694725        -168.178         0.520193         88.6312         0.520193         88.6312         0.694862        -168.167
76.505                  0.694969        -168.819          0.51991         88.1249          0.51991         88.1249         0.695109        -168.807
76.54                   0.695222        -169.459          0.51963         87.6202          0.51963         87.6202         0.695364        -169.447
76.575                  0.695484        -170.097         0.519352          87.117         0.519352          87.117         0.695629        -170.085
76.61                   0.695757        -170.734         0.519075         86.6154         0.519075         86.6154         0.695904        -170.722
76.645                   0.69604        -171.371         0.518801         86.1153         0.518801         86.1153         0.696189        -171.358
76.68                   0.696334        -172.006         0.518529         85.6169         0.518529         85.6169         0.696485        -171.993
76.715                  0.696639         -172.64         0.518258         85.1201         0.518258         85.1201         0.696793        -172.627
76.75                   0.696956        -173.273          0.51799         84.6249          0.51799         84.6249         0.697112         -173.26
76.785                  0.697285        -173.906         0.517723         84.1313         0.517723         84.1313         0.697444        -173.892
76.82                   0.697626        -174.537         0.517458         83.6395         0.517458         83.6395         0.697788        -174.524
76.855                  0.697981        -175.168         0.517195         83.1493         0.517195         83.1493         0.698146        -175.155
76.89                   0.698349        -175.798         0.516934         82.6609         0.516934         82.6609         0.698516        -175.785
76.925                  0.698731        -176.428         0.516674         82.1743         0.516674         82.1743         0.698901        -176.415
76.96                   0.699127        -177.057         0.516417         81.6894         0.516417         81.6894           0.6993        -177.044
76.995                  0.699538        -177.686         0.516161         81.2064         0.516161         81.2064         0.699713        -177.672
77.03                   0.699964        -178.314         0.515908         80.7253         0.515908         80.7253         0.700142        -178.301
77.065                  0.700405        -178.942         0.515657         80.2461         0.515657         80.2461         0.700585        -178.929
77.1                    0.700862         -179.57         0.515408         79.7689         0.515408         79.7689         0.701044        -179.557
77.135                  0.701334         179.802         0.515161         79.2937         0.515161         79.2937          0.70152         179.816
77.17                   0.701823         179.175         0.514918         78.8205         0.514918         78.8205         0.702011         179.188
77.205                  0.702329         178.547         0.514677         78.3495         0.514677         78.3495         0.702519         178.561
77.24                   0.702852          177.92          0.51444         77.8807          0.51444         77.8807         0.703044         177.933
77.275                  0.703392         177.292         0.514207         77.4141         0.514207         77.4141         0.703586         177.305
77.31                   0.703949         176.664         0.513977         76.9498         0.513977         76.9498         0.704145         176.677
77.345                  0.704524         176.036         0.513752         76.4879         0.513752         76.4879         0.704722         176.049
77.38                   0.705118         175.408         0.513532         76.0284         0.513532         76.0284         0.705317          175.42
77.415                  0.705729         174.779         0.513318         75.5715         0.513318         75.5715          0.70593         174.791
77.45                   0.706359         174.149         0.513109         75.1171         0.513109         75.1171         0.706561         174.161
77.485                  0.707008         173.519         0.512908         74.6653         0.512908         74.6653         0.707211          173.53
77.52                   0.707675         172.888         0.512714         74.2163         0.512714         74.2163          0.70788         172.899
77.555                  0.708362         172.256         0.512529         73.7701         0.512529         73.7701         0.708567         172.267
77.59                   0.709067         171.623         0.512352         73.3268         0.512352         73.3268         0.709273         171.634
77.625                  0.709792         170.989         0.512187         72.8865         0.512187         72.8865         0.709998             171
77.66                   0.710536         170.354         0.512033         72.4492         0.512033         72.4492         0.710742         170.364
77.695                  0.711299         169.717         0.511891          72.015         0.511891          72.015         0.711505         169.728
77.73                   0.712082          169.08         0.511764          71.584         0.511764          71.584         0.712288          169.09
77.765                  0.712884         168.441         0.511652         71.1563         0.511652         71.1563         0.713089          168.45
77.8                    0.713705           167.8         0.511557          70.732         0.511557          70.732         0.713909         167.809
77.835                  0.714545         167.157         0.511481         70.3111         0.511481         70.3111         0.714748         167.166
77.87                   0.715404         166.513         0.511426         69.8937         0.511426         69.8937         0.715606         166.522
77.905                  0.716281         165.866         0.511393         69.4798         0.511393         69.4798         0.716482         165.875
77.94                   0.717177         165.218         0.511386         69.0695         0.511386         69.0695         0.717376         165.226
77.975                  0.718091         164.567         0.511406         68.6629         0.511406         68.6629         0.718287         164.576
78.01                   0.719022         163.914         0.511455         68.2599         0.511455         68.2599         0.719216         163.922
78.045                   0.71997         163.259         0.511538         67.8606         0.511538         67.8606         0.720162         163.266
78.08                   0.720934           162.6         0.511655         67.4649         0.511655         67.4649         0.721124         162.608
78.115                  0.721915         161.939         0.511812         67.0729         0.511812         67.0729         0.722102         161.947
78.15                    0.72291         161.275          0.51201         66.6845          0.51201         66.6845         0.723094         161.283
78.185                  0.723919         160.608         0.512254         66.2996         0.512254         66.2996           0.7241         160.615
78.22                   0.724941         159.938         0.512546         65.9181         0.512546         65.9181         0.725119         159.945
78.255                  0.725974         159.264         0.512892         65.5398         0.512892         65.5398         0.726149         159.271
78.29                   0.727019         158.587         0.513294         65.1647         0.513294         65.1647          0.72719         158.593
78.325                  0.728072         157.906         0.513758         64.7924         0.513758         64.7924          0.72824         157.912
78.36                   0.729132         157.221         0.514287         64.4228         0.514287         64.4228         0.729298         157.227
78.395                  0.730199         156.532         0.514886         64.0554         0.514886         64.0554         0.730361         156.538
78.43                   0.731269         155.838         0.515559           63.69         0.515559           63.69         0.731428         155.845
78.465                  0.732341         155.141         0.516311          63.326         0.516311          63.326         0.732497         155.148
78.5                    0.733412         154.439         0.517147          62.963         0.517147          62.963         0.733565         154.446
78.535                   0.73448         153.732          0.51807         62.6005          0.51807         62.6005         0.734631         153.739
78.57                   0.735542         153.021         0.519086         62.2378         0.519086         62.2378         0.735691         153.028
78.605                  0.736596         152.304         0.520198         61.8742         0.520198         61.8742         0.736742         152.312
78.64                   0.737637         151.583         0.521409         61.5089         0.521409         61.5089         0.737782          151.59
78.675                  0.738663         150.856         0.522724         61.1411         0.522724         61.1411         0.738806         150.864
78.71                   0.739669         150.124         0.524146         60.7699         0.524146         60.7699         0.739812         150.132
78.745                  0.740653         149.386         0.525675         60.3943         0.525675         60.3943         0.740795         149.395
78.78                   0.741609         148.643         0.527314         60.0134         0.527314         60.0134         0.741752         148.652
78.815                  0.742533         147.895         0.529064         59.6259         0.529064         59.6259         0.742677         147.903
78.85                   0.743422         147.141         0.530923         59.2308         0.530923         59.2308         0.743566          147.15
78.885                  0.744268         146.381         0.532891          58.827         0.532891          58.827         0.744415          146.39
78.92                   0.745069         145.615         0.534965         58.4133         0.534965         58.4133         0.745218         145.625
78.955                  0.745818         144.844         0.537141         57.9885         0.537141         57.9885          0.74597         144.854
78.99                    0.74651         144.067         0.539413         57.5516         0.539413         57.5516         0.746666         144.077
79.025                  0.747139         143.285         0.541775         57.1015         0.541775         57.1015         0.747299         143.295
79.06                     0.7477         142.498         0.544218         56.6372         0.544218         56.6372         0.747865         142.507
79.095                  0.748187         141.705         0.546733         56.1578         0.546733         56.1578         0.748357         141.715
79.13                   0.748593         140.907          0.54931         55.6625          0.54931         55.6625         0.748768         140.917
79.165                  0.748914         140.104         0.551936         55.1507         0.551936         55.1507         0.749095         140.114
79.2                    0.749144         139.297         0.554598         54.6218         0.554598         54.6218          0.74933         139.306
79.235                  0.749276         138.485         0.557282         54.0755         0.557282         54.0755         0.749468         138.494
79.27                   0.749306          137.67         0.559974         53.5116         0.559974         53.5116         0.749503         137.679
79.305                  0.749228         136.851         0.562657         52.9302         0.562657         52.9302         0.749431         136.859
79.34                   0.749038         136.029         0.565317         52.3313         0.565317         52.3313         0.749246         136.037
79.375                  0.748732         135.204         0.567939         51.7155         0.567939         51.7155         0.748944         135.212
79.41                   0.748306         134.378         0.570506         51.0832         0.570506         51.0832         0.748521         134.384
79.445                  0.747757         133.549         0.573005          50.435         0.573005          50.435         0.747974         133.556
79.48                   0.747082          132.72         0.575423         49.7719         0.575423         49.7719         0.747301         132.726
79.515                   0.74628         131.891         0.577746         49.0948         0.577746         49.0948         0.746498         131.896
79.55                   0.745349         131.062         0.579963         48.4047         0.579963         48.4047         0.745566         131.066
79.585                   0.74429         130.234         0.582064         47.7029         0.582064         47.7029         0.744503         130.237
79.62                   0.743102         129.408          0.58404         46.9904          0.58404         46.9904         0.743311          129.41
79.655                  0.741789         128.584         0.585885         46.2686         0.585885         46.2686         0.741991         128.585
79.69                   0.740351         127.763         0.587593         45.5386         0.587593         45.5386         0.740545         127.763
79.725                  0.738793         126.946          0.58916         44.8018          0.58916         44.8018         0.738977         126.945
79.76                   0.737118         126.133         0.590584         44.0593         0.590584         44.0593          0.73729         126.132
79.795                  0.735332         125.325         0.591863         43.3123         0.591863         43.3123         0.735491         125.323
79.83                    0.73344         124.523         0.592998          42.562         0.592998          42.562         0.733584          124.52
79.865                  0.731449         123.727         0.593991         41.8094         0.593991         41.8094         0.731575         123.724
79.9                    0.729365         122.938         0.594843         41.0555         0.594843         41.0555         0.729474         122.934
79.935                  0.727196         122.155         0.595557         40.3013         0.595557         40.3013         0.727286         122.151
79.97                    0.72495          121.38         0.596139         39.5475         0.596139         39.5475         0.725021         121.376
80.005                  0.722636         120.613         0.596593         38.7949         0.596593         38.7949         0.722686         120.609
80.04                   0.720262         119.854         0.596923         38.0441         0.596923         38.0441         0.720291         119.851
80.075                  0.717837         119.104         0.597136         37.2959         0.597136         37.2959         0.717844         119.101
80.11                   0.715368         118.362         0.597237         36.5506         0.597237         36.5506         0.715355         118.359
80.145                  0.712866         117.629         0.597231         35.8088         0.597231         35.8088         0.712833         117.627
80.18                   0.710338         116.904         0.597126         35.0708         0.597126         35.0708         0.710285         116.903
80.215                  0.707794         116.189         0.596927         34.3368         0.596927         34.3368         0.707722         116.189
80.25                   0.705239         115.481         0.596639         33.6073         0.596639         33.6073          0.70515         115.483
80.285                  0.702684         114.783         0.596269         32.8822         0.596269         32.8822         0.702578         114.786
80.32                   0.700133         114.092         0.595822         32.1619         0.595822         32.1619         0.700013         114.097
80.355                  0.697595          113.41         0.595303         31.4464         0.595303         31.4464         0.697462         113.417
80.39                   0.695075         112.736         0.594718         30.7358         0.594718         30.7358         0.694931         112.745
80.425                  0.692579         112.069         0.594071         30.0301         0.594071         30.0301         0.692426          112.08
80.46                   0.690113          111.41         0.593366         29.3293         0.593366         29.3293         0.689953         111.423
80.495                  0.687679         110.758         0.592609         28.6334         0.592609         28.6334         0.687515         110.773
80.53                   0.685284         110.112         0.591803         27.9424         0.591803         27.9424         0.685117         110.129
80.565                   0.68293         109.472         0.590952         27.2563         0.590952         27.2563         0.682762         109.492
80.6                     0.68062         108.839          0.59006         26.5748          0.59006         26.5748         0.680454         108.861
80.635                  0.678357         108.211         0.589129          25.898         0.589129          25.898         0.678195         108.235
80.67                   0.676143         107.587         0.588162         25.2258         0.588162         25.2258         0.675986         107.614
80.705                  0.673979         106.969         0.587164          24.558         0.587164          24.558         0.673829         106.997
80.74                   0.671867         106.355         0.586135         23.8946         0.586135         23.8946         0.671726         106.385
80.775                  0.669807         105.744         0.585078         23.2355         0.585078         23.2355         0.669677         105.777
80.81                     0.6678         105.138         0.583996         22.5805         0.583996         22.5805         0.667682         105.173
80.845                  0.665846         104.534         0.582891         21.9295         0.582891         21.9295         0.665742         104.571
80.88                   0.663944         103.933         0.581764         21.2824         0.581764         21.2824         0.663856         103.972
80.915                  0.662095         103.335         0.580616         20.6391         0.580616         20.6391         0.662023         103.376
80.95                   0.660298         102.739          0.57945         19.9994          0.57945         19.9994         0.660243         102.781
80.985                  0.658551         102.144         0.578267         19.3634         0.578267         19.3634         0.658514         102.188
81.02                   0.656854         101.551         0.577067         18.7308         0.577067         18.7308         0.656836         101.597
81.055                  0.655206          100.96         0.575853         18.1015         0.575853         18.1015         0.655208         101.007
81.09                   0.653605         100.369         0.574625         17.4755         0.574625         17.4755         0.653627         100.417
81.125                   0.65205         99.7794         0.573383         16.8526         0.573383         16.8526         0.652093         99.8288
81.16                   0.650539           99.19         0.572129         16.2328         0.572129         16.2328         0.650603         99.2405
81.195                  0.649071          98.601         0.570864         15.6159         0.570864         15.6159         0.649156         98.6523
81.23                   0.647644          98.012         0.569587         15.0018         0.569587         15.0018         0.647751         98.0642
81.265                  0.646257          97.423           0.5683         14.3906           0.5683         14.3906         0.646385         97.4759
81.3                    0.644908         96.8337         0.567004          13.782         0.567004          13.782         0.645057         96.8872
81.335                  0.643595         96.2439         0.565697          13.176         0.565697          13.176         0.643765         96.2979
81.37                   0.642317         95.6536         0.564382         12.5726         0.564382         12.5726         0.642507         95.7081
81.405                  0.641071         95.0626         0.563058         11.9716         0.563058         11.9716         0.641282         95.1174
81.44                   0.639856         94.4708         0.561726          11.373         0.561726          11.373         0.640088         94.5258
81.475                  0.638672          93.878         0.560385         10.7768         0.560385         10.7768         0.638923         93.9331
81.51                   0.637515         93.2842         0.559037         10.1828         0.559037         10.1828         0.637785         93.3394
81.545                  0.636384         92.6893         0.557681         9.59099         0.557681         9.59099         0.636673         92.7445
81.58                   0.635278         92.0932         0.556317         9.00134         0.556317         9.00134         0.635585         92.1483
81.615                  0.634195         91.4959         0.554946         8.41379         0.554946         8.41379          0.63452         91.5508
81.65                   0.633134         90.8972         0.553568         7.82829         0.553568         7.82829         0.633476         90.9518
81.685                  0.632094         90.2971         0.552183         7.24479         0.552183         7.24479         0.632452         90.3515
81.72                   0.631072         89.6955          0.55079         6.66325          0.55079         6.66325         0.631446         89.7496
81.755                  0.630068         89.0925         0.549391         6.08362         0.549391         6.08362         0.630457         89.1462
81.79                    0.62908          88.488         0.547984         5.50588         0.547984         5.50588         0.629483         88.5412
81.825                  0.628107         87.8819         0.546571         4.92998         0.546571         4.92998         0.628524         87.9347
81.86                   0.627148         87.2742         0.545151         4.35589         0.545151         4.35589         0.627578         87.3266
81.895                  0.626201         86.6649         0.543724         3.78358         0.543724         3.78358         0.626644         86.7168