! TOUCHSTONE file generated by CST MICROWAVE STUDIO
! Date and time: Fri Feb 16 12:03:41 2024
! Project name: material_rotado.cst
! Parameters = {angX=0.5; angY=0.75}
! Header version: 2018
! Port assignment regex: !\s*Touchstone port\s*([0-9]+)\s*=\s*(CST MWS port|CST DS port)\s*([0-9]+|Zmin|Zmax)\s*\(\"(.*)\"\)(\s*mode\s*([0-9]+))?.*
! Touchstone port assignment:
! Touchstone port 1 = CST MWS port 1 ("")
! Touchstone port 2 = CST MWS port 2 ("")
# GHz S MA R 376.7
75                       0.30278        -157.883         0.953061         112.231         0.953061         112.231          0.30278        -157.656
75.035                  0.302972        -157.975         0.953016         112.121         0.953016         112.121         0.302975        -157.749
75.07                   0.303164        -158.067         0.952971         112.012         0.952971         112.012         0.303169        -157.842
75.105                  0.303356        -158.159         0.952926         111.902         0.952926         111.902         0.303364        -157.935
75.14                   0.303547        -158.252         0.952881         111.793         0.952881         111.793         0.303557        -158.029
75.175                  0.303738        -158.344         0.952836         111.683         0.952836         111.683         0.303751        -158.122
75.21                   0.303928        -158.437         0.952791         111.574         0.952791         111.574         0.303943        -158.216
75.245                  0.304118         -158.53         0.952746         111.464         0.952746         111.464         0.304135         -158.31
75.28                   0.304307        -158.623         0.952701         111.355         0.952701         111.355         0.304327        -158.404
75.315                  0.304496        -158.716         0.952656         111.245         0.952656         111.245         0.304518        -158.498
75.35                   0.304684        -158.809         0.952611         111.136         0.952611         111.136         0.304709        -158.592
75.385                  0.304872        -158.903         0.952565         111.026         0.952565         111.026         0.304899        -158.687
75.42                   0.305059        -158.996          0.95252         110.917          0.95252         110.917         0.305089        -158.782
75.455                  0.305245         -159.09         0.952475         110.808         0.952475         110.808         0.305278        -158.876
75.49                   0.305432        -159.184          0.95243         110.698          0.95243         110.698         0.305467        -158.971
75.525                  0.305617        -159.278         0.952385         110.589         0.952385         110.589         0.305655        -159.066
75.56                   0.305802        -159.372         0.952339         110.479         0.952339         110.479         0.305842        -159.161
75.595                  0.305987        -159.466         0.952294          110.37         0.952294          110.37         0.306029        -159.257
75.63                   0.306171        -159.561         0.952249         110.261         0.952249         110.261         0.306216        -159.352
75.665                  0.306355        -159.655         0.952203         110.151         0.952203         110.151         0.306401        -159.448
75.7                    0.306538         -159.75         0.952158         110.042         0.952158         110.042         0.306587        -159.544
75.735                   0.30672        -159.845         0.952113         109.933         0.952113         109.933         0.306772        -159.639
75.77                   0.306902         -159.94         0.952067         109.823         0.952067         109.823         0.306956        -159.735
75.805                  0.307083        -160.035         0.952022         109.714         0.952022         109.714         0.307139        -159.832
75.84                   0.307264         -160.13         0.951977         109.605         0.951977         109.605         0.307322        -159.928
75.875                  0.307444        -160.226         0.951932         109.495         0.951932         109.495         0.307505        -160.025
75.91                   0.307624        -160.321         0.951886         109.386         0.951886         109.386         0.307687        -160.121
75.945                  0.307803        -160.417         0.951841         109.277         0.951841         109.277         0.307868        -160.218
75.98                   0.307981        -160.513         0.951796         109.167         0.951796         109.167         0.308049        -160.315
76.015                  0.308159        -160.609          0.95175         109.058          0.95175         109.058         0.308229        -160.412
76.05                   0.308336        -160.705         0.951705         108.949         0.951705         108.949         0.308408        -160.509
76.085                  0.308513        -160.801          0.95166          108.84          0.95166          108.84         0.308587        -160.606
76.12                   0.308689        -160.898         0.951615          108.73         0.951615          108.73         0.308766        -160.704
76.155                  0.308865        -160.994          0.95157         108.621          0.95157         108.621         0.308943        -160.802
76.19                    0.30904        -161.091         0.951525         108.512         0.951525         108.512          0.30912        -160.899
76.225                  0.309214        -161.188          0.95148         108.403          0.95148         108.403         0.309297        -160.997
76.26                   0.309387        -161.285         0.951434         108.293         0.951434         108.293         0.309473        -161.095
76.295                  0.309561        -161.382         0.951389         108.184         0.951389         108.184         0.309648        -161.194
76.33                   0.309733        -161.479         0.951344         108.075         0.951344         108.075         0.309822        -161.292
76.365                  0.309905        -161.576           0.9513         107.966           0.9513         107.966         0.309996         -161.39
76.4                    0.310076        -161.674         0.951255         107.856         0.951255         107.856         0.310169        -161.489
76.435                  0.310246        -161.772          0.95121         107.747          0.95121         107.747         0.310342        -161.588
76.47                   0.310416        -161.869         0.951165         107.638         0.951165         107.638         0.310514        -161.687
76.505                  0.310585        -161.967          0.95112         107.529          0.95112         107.529         0.310685        -161.786
76.54                   0.310754        -162.066         0.951076          107.42         0.951076          107.42         0.310856        -161.885
76.575                  0.310922        -162.164         0.951031         107.311         0.951031         107.311         0.311026        -161.984
76.61                   0.311089        -162.262         0.950986         107.201         0.950986         107.201         0.311195        -162.084
76.645                  0.311256        -162.361         0.950942         107.092         0.950942         107.092         0.311363        -162.183
76.68                   0.311422        -162.459         0.950897         106.983         0.950897         106.983         0.311531        -162.283
76.715                  0.311587        -162.558         0.950853         106.874         0.950853         106.874         0.311698        -162.383
76.75                   0.311751        -162.657         0.950809         106.765         0.950809         106.765         0.311865        -162.483
76.785                  0.311915        -162.756         0.950764         106.656         0.950764         106.656         0.312031        -162.583
76.82                   0.312078        -162.855          0.95072         106.546          0.95072         106.546         0.312196        -162.684
76.855                  0.312241        -162.955         0.950676         106.437         0.950676         106.437          0.31236        -162.784
76.89                   0.312403        -163.054         0.950632         106.328         0.950632         106.328         0.312524        -162.885
76.925                  0.312564        -163.154         0.950588         106.219         0.950588         106.219         0.312687        -162.985
76.96                   0.312724        -163.253         0.950544          106.11         0.950544          106.11         0.312849        -163.086
76.995                  0.312884        -163.353           0.9505         106.001           0.9505         106.001          0.31301        -163.187
77.03                   0.313043        -163.453         0.950457         105.892         0.950457         105.892         0.313171        -163.288
77.065                  0.313201        -163.554         0.950413         105.783         0.950413         105.783         0.313331         -163.39
77.1                    0.313358        -163.654         0.950369         105.674         0.950369         105.674          0.31349        -163.491
77.135                  0.313515        -163.754         0.950326         105.565         0.950326         105.565         0.313649        -163.593
77.17                   0.313671        -163.855         0.950283         105.456         0.950283         105.456         0.313807        -163.694
77.205                  0.313827        -163.956         0.950239         105.347         0.950239         105.347         0.313964        -163.796
77.24                   0.313981        -164.056         0.950196         105.238         0.950196         105.238          0.31412        -163.898
77.275                  0.314135        -164.157         0.950153         105.128         0.950153         105.128         0.314275            -164
77.31                   0.314288        -164.259          0.95011         105.019          0.95011         105.019          0.31443        -164.103
77.345                   0.31444         -164.36         0.950067          104.91         0.950067          104.91         0.314584        -164.205
77.38                   0.314592        -164.461         0.950025         104.801         0.950025         104.801         0.314737        -164.308
77.415                  0.314742        -164.563         0.949982         104.692         0.949982         104.692         0.314889         -164.41
77.45                   0.314892        -164.664         0.949939         104.583         0.949939         104.583         0.315041        -164.513
77.485                  0.315042        -164.766         0.949897         104.474         0.949897         104.474         0.315192        -164.616
77.52                    0.31519        -164.868         0.949855         104.365         0.949855         104.365         0.315341        -164.719
77.555                  0.315338         -164.97         0.949813         104.256         0.949813         104.256         0.315491        -164.822
77.59                   0.315484        -165.072          0.94977         104.147          0.94977         104.147         0.315639        -164.925
77.625                   0.31563        -165.175         0.949729         104.038         0.949729         104.038         0.315786        -165.029
77.66                   0.315776        -165.277         0.949687         103.929         0.949687         103.929         0.315933        -165.133
77.695                   0.31592         -165.38         0.949645         103.821         0.949645         103.821         0.316079        -165.236
77.73                   0.316064        -165.482         0.949604         103.712         0.949604         103.712         0.316224         -165.34
77.765                  0.316206        -165.585         0.949562         103.603         0.949562         103.603         0.316368        -165.444
77.8                    0.316348        -165.688         0.949521         103.494         0.949521         103.494         0.316512        -165.548
77.835                   0.31649        -165.791          0.94948         103.385          0.94948         103.385         0.316654        -165.652
77.87                    0.31663        -165.894         0.949439         103.276         0.949439         103.276         0.316796        -165.757
77.905                  0.316769        -165.998         0.949398         103.167         0.949398         103.167         0.316937        -165.861
77.94                   0.316908        -166.101         0.949357         103.058         0.949357         103.058         0.317076        -165.966
77.975                  0.317046        -166.205         0.949316         102.949         0.949316         102.949         0.317216        -166.071
78.01                   0.317183        -166.308         0.949276          102.84         0.949276          102.84         0.317354        -166.176
78.045                  0.317319        -166.412         0.949236         102.731         0.949236         102.731         0.317491        -166.281
78.08                   0.317454        -166.516         0.949196         102.622         0.949196         102.622         0.317628        -166.386
78.115                  0.317588         -166.62         0.949156         102.513         0.949156         102.513         0.317763        -166.491
78.15                   0.317722        -166.725         0.949116         102.405         0.949116         102.405         0.317898        -166.597
78.185                  0.317855        -166.829         0.949076         102.296         0.949076         102.296         0.318032        -166.702
78.22                   0.317986        -166.934         0.949037         102.187         0.949037         102.187         0.318164        -166.808
78.255                  0.318117        -167.038         0.948997         102.078         0.948997         102.078         0.318296        -166.914
78.29                   0.318247        -167.143         0.948958         101.969         0.948958         101.969         0.318428         -167.02
78.325                  0.318376        -167.248         0.948919          101.86         0.948919          101.86         0.318558        -167.126
78.36                   0.318504        -167.353          0.94888         101.751          0.94888         101.751         0.318687        -167.232
78.395                  0.318632        -167.458         0.948841         101.642         0.948841         101.642         0.318815        -167.338
78.43                   0.318758        -167.563         0.948803         101.534         0.948803         101.534         0.318943        -167.444
78.465                  0.318884        -167.669         0.948765         101.425         0.948765         101.425         0.319069        -167.551
78.5                    0.319008        -167.774         0.948726         101.316         0.948726         101.316         0.319195        -167.658
78.535                  0.319132         -167.88         0.948688         101.207         0.948688         101.207         0.319319        -167.765
78.57                   0.319255        -167.985         0.948651         101.098         0.948651         101.098         0.319443        -167.871
78.605                  0.319376        -168.091         0.948613         100.989         0.948613         100.989         0.319566        -167.978
78.64                   0.319497        -168.197         0.948575         100.881         0.948575         100.881         0.319688        -168.086
78.675                  0.319617        -168.303         0.948538         100.772         0.948538         100.772         0.319808        -168.193
78.71                   0.319736         -168.41         0.948501         100.663         0.948501         100.663         0.319928          -168.3
78.745                  0.319854        -168.516         0.948464         100.554         0.948464         100.554         0.320047        -168.408
78.78                   0.319971        -168.622         0.948427         100.445         0.948427         100.445         0.320165        -168.516
78.815                  0.320088        -168.729         0.948391         100.337         0.948391         100.337         0.320282        -168.623
78.85                   0.320203        -168.836         0.948355         100.228         0.948355         100.228         0.320398        -168.731
78.885                  0.320317        -168.943         0.948319         100.119         0.948319         100.119         0.320513        -168.839
78.92                    0.32043         -169.05         0.948283          100.01         0.948283          100.01         0.320627        -168.947
78.955                  0.320543        -169.157         0.948247         99.9015         0.948247         99.9015          0.32074        -169.056
78.99                   0.320654        -169.264         0.948211         99.7928         0.948211         99.7928         0.320852        -169.164
79.025                  0.320764        -169.371         0.948176          99.684         0.948176          99.684         0.320963        -169.272
79.06                   0.320874        -169.479         0.948141         99.5753         0.948141         99.5753         0.321073        -169.381
79.095                  0.320982        -169.586         0.948106         99.4665         0.948106         99.4665         0.321181         -169.49
79.13                   0.321089        -169.694         0.948071         99.3578         0.948071         99.3578         0.321289        -169.599
79.165                  0.321196        -169.801         0.948037          99.249         0.948037          99.249         0.321396        -169.708
79.2                    0.321301        -169.909         0.948003         99.1403         0.948003         99.1403         0.321502        -169.817
79.235                  0.321405        -170.017         0.947969         99.0315         0.947969         99.0315         0.321607        -169.926
79.27                   0.321509        -170.125         0.947935         98.9228         0.947935         98.9228         0.321711        -170.035
79.305                  0.321611        -170.234         0.947901         98.8141         0.947901         98.8141         0.321814        -170.145
79.34                   0.321712        -170.342         0.947868         98.7054         0.947868         98.7054         0.321915        -170.254
79.375                  0.321813         -170.45         0.947835         98.5966         0.947835         98.5966         0.322016        -170.364
79.41                   0.321912        -170.559         0.947802         98.4879         0.947802         98.4879         0.322116        -170.473
79.445                   0.32201        -170.668         0.947769         98.3792         0.947769         98.3792         0.322214        -170.583
79.48                   0.322107        -170.776         0.947737         98.2705         0.947737         98.2705         0.322312        -170.693
79.515                  0.322203        -170.885         0.947704         98.1618         0.947704         98.1618         0.322408        -170.803
79.55                   0.322299        -170.994         0.947672         98.0531         0.947672         98.0531         0.322504        -170.914
79.585                  0.322393        -171.103          0.94764         97.9444          0.94764         97.9444         0.322598        -171.024
79.62                   0.322486        -171.213         0.947609         97.8357         0.947609         97.8357         0.322691        -171.134
79.655                  0.322578        -171.322         0.947578          97.727         0.947578          97.727         0.322783        -171.245
79.69                   0.322668        -171.431         0.947547         97.6183         0.947547         97.6183         0.322874        -171.355
79.725                  0.322758        -171.541         0.947516         97.5097         0.947516         97.5097         0.322964        -171.466
79.76                   0.322847        -171.651         0.947485          97.401         0.947485          97.401         0.323053        -171.577
79.795                  0.322935         -171.76         0.947455         97.2923         0.947455         97.2923         0.323141        -171.688
79.83                   0.323021         -171.87         0.947425         97.1836         0.947425         97.1836         0.323228        -171.799
79.865                  0.323107         -171.98         0.947395          97.075         0.947395          97.075         0.323313         -171.91
79.9                    0.323191         -172.09         0.947365         96.9663         0.947365         96.9663         0.323398        -172.021
79.935                  0.323274        -172.201         0.947336         96.8576         0.947336         96.8576         0.323481        -172.133
79.97                   0.323357        -172.311         0.947307          96.749         0.947307          96.749         0.323563        -172.244
80.005                  0.323438        -172.421         0.947278         96.6403         0.947278         96.6403         0.323644        -172.356
80.04                   0.323518        -172.532          0.94725         96.5317          0.94725         96.5317         0.323724        -172.467
80.075                  0.323597        -172.642         0.947221          96.423         0.947221          96.423         0.323803        -172.579
80.11                   0.323675        -172.753         0.947193         96.3144         0.947193         96.3144         0.323881        -172.691
80.145                  0.323751        -172.864         0.947166         96.2057         0.947166         96.2057         0.323957        -172.803
80.18                   0.323827        -172.975         0.947138         96.0971         0.947138         96.0971         0.324033        -172.915
80.215                  0.323901        -173.086         0.947111         95.9884         0.947111         95.9884         0.324107        -173.027
80.25                   0.323975        -173.197         0.947084         95.8798         0.947084         95.8798          0.32418         -173.14
80.285                  0.324047        -173.308         0.947057         95.7712         0.947057         95.7712         0.324252        -173.252
80.32                   0.324118        -173.419         0.947031         95.6625         0.947031         95.6625         0.324323        -173.364
80.355                  0.324188        -173.531         0.947005         95.5539         0.947005         95.5539         0.324392        -173.477
80.39                   0.324257        -173.642         0.946979         95.4453         0.946979         95.4453         0.324461         -173.59
80.425                  0.324324        -173.754         0.946953         95.3367         0.946953         95.3367         0.324528        -173.702
80.46                   0.324391        -173.865         0.946928          95.228         0.946928          95.228         0.324594        -173.815
80.495                  0.324456        -173.977         0.946903         95.1194         0.946903         95.1194         0.324659        -173.928
80.53                    0.32452        -174.089         0.946878         95.0108         0.946878         95.0108         0.324723        -174.041
80.565                  0.324583        -174.201         0.946853         94.9022         0.946853         94.9022         0.324786        -174.154
80.6                    0.324645        -174.313         0.946829         94.7936         0.946829         94.7936         0.324847        -174.268
80.635                  0.324706        -174.425         0.946805          94.685         0.946805          94.685         0.324907        -174.381
80.67                   0.324765        -174.538         0.946782         94.5763         0.946782         94.5763         0.324966        -174.494
80.705                  0.324824         -174.65         0.946758         94.4677         0.946758         94.4677         0.325024        -174.608
80.74                   0.324881        -174.762         0.946735         94.3591         0.946735         94.3591         0.325081        -174.722
80.775                  0.324937        -174.875         0.946713         94.2505         0.946713         94.2505         0.325136        -174.835
80.81                   0.324992        -174.987          0.94669         94.1419          0.94669         94.1419          0.32519        -174.949
80.845                  0.325045          -175.1         0.946668         94.0333         0.946668         94.0333         0.325243        -175.063
80.88                   0.325098        -175.213         0.946646         93.9247         0.946646         93.9247         0.325295        -175.177
80.915                  0.325149        -175.326         0.946625         93.8161         0.946625         93.8161         0.325346        -175.291
80.95                   0.325199        -175.439         0.946603         93.7075         0.946603         93.7075         0.325395        -175.405
80.985                  0.325248        -175.552         0.946582         93.5989         0.946582         93.5989         0.325443        -175.519
81.02                   0.325295        -175.665         0.946562         93.4903         0.946562         93.4903          0.32549        -175.633
81.055                  0.325342        -175.778         0.946541         93.3817         0.946541         93.3817         0.325536        -175.748
81.09                   0.325387        -175.891         0.946521         93.2732         0.946521         93.2732          0.32558        -175.862
81.125                  0.325431        -176.005         0.946502         93.1646         0.946502         93.1646         0.325623        -175.977
81.16                   0.325474        -176.118         0.946482          93.056         0.946482          93.056         0.325665        -176.091
81.195                  0.325515        -176.232         0.946463         92.9474         0.946463         92.9474         0.325706        -176.206
81.23                   0.325556        -176.346         0.946444         92.8388         0.946444         92.8388         0.325745        -176.321
81.265                  0.325595        -176.459         0.946426         92.7302         0.946426         92.7302         0.325783        -176.436
81.3                    0.325633        -176.573         0.946408         92.6216         0.946408         92.6216          0.32582        -176.551
81.335                  0.325669        -176.687          0.94639          92.513          0.94639          92.513         0.325856        -176.666
81.37                   0.325705        -176.801         0.946372         92.4045         0.946372         92.4045         0.325891        -176.781
81.405                  0.325739        -176.915         0.946355         92.2959         0.946355         92.2959         0.325924        -176.896
81.44                   0.325772        -177.029         0.946338         92.1873         0.946338         92.1873         0.325956        -177.011
81.475                  0.325804        -177.143         0.946322         92.0787         0.946322         92.0787         0.325986        -177.127
81.51                   0.325834        -177.258         0.946305         91.9701         0.946305         91.9701         0.326016        -177.242
81.545                  0.325863        -177.372          0.94629         91.8615          0.94629         91.8615         0.326044        -177.358
81.58                   0.325891        -177.486         0.946274          91.753         0.946274          91.753          0.32607        -177.473
81.615                  0.325918        -177.601         0.946259         91.6444         0.946259         91.6444         0.326096        -177.589
81.65                   0.325943        -177.715         0.946244         91.5358         0.946244         91.5358          0.32612        -177.704
81.685                  0.325967         -177.83         0.946229         91.4272         0.946229         91.4272         0.326143         -177.82
81.72                    0.32599        -177.945         0.946215         91.3186         0.946215         91.3186         0.326165        -177.936
81.755                  0.326012         -178.06         0.946201           91.21         0.946201           91.21         0.326185        -178.052
81.79                   0.326032        -178.174         0.946188         91.1015         0.946188         91.1015         0.326204        -178.168
81.825                  0.326051        -178.289         0.946174         90.9929         0.946174         90.9929         0.326222        -178.284
81.86                   0.326069        -178.404         0.946161         90.8843         0.946161         90.8843         0.326239          -178.4
81.895                  0.326086        -178.519         0.946149         90.7757         0.946149         90.7757         0.326254        -178.516