! TOUCHSTONE file generated by CST MICROWAVE STUDIO
! Date and time: Wed Feb 14 15:11:36 2024
! Project name: metal_rotado.cst
! Parameters = {angY=0.5}
! Header version: 2018
! Port assignment regex: !\s*Touchstone port\s*([0-9]+)\s*=\s*(CST MWS port|CST DS port)\s*([0-9]+|Zmin|Zmax)\s*\(\"(.*)\"\)(\s*mode\s*([0-9]+))?.*
! Touchstone port assignment:
! Touchstone port 1 = CST MWS port 1 ("")
! Touchstone port 2 = CST MWS port 2 ("")
# GHz S MA R 376.7
75                             1         171.875                0               0                0               0                1        -172.256
75.035                   1.00008         171.533      4.49145e-65        -179.999      4.49145e-65        -179.999          1.00002        -172.589
75.07                    1.00017         171.191      4.49145e-65        -179.998      4.49145e-65        -179.998          1.00004        -172.923
75.105                    1.0003          170.85      4.49145e-65        -179.998      4.49145e-65        -179.998          1.00005        -173.256
75.14                    1.00047          170.51      4.49145e-65        -179.997      4.49145e-65        -179.997          1.00005         -173.59
75.175                   1.00068         170.175      4.49145e-65        -179.996      4.49145e-65        -179.996          1.00006        -173.923
75.21                    1.00088         169.847      4.49145e-65        -179.996      4.49145e-65        -179.996          1.00006        -174.255
75.245                   1.00095         169.525      4.49146e-65        -179.995      4.49146e-65        -179.995          1.00005        -174.588
75.28                    1.00082         169.203      4.39165e-65        -179.995      4.39165e-65        -179.995          1.00005         -174.92
75.315                   1.00058         168.872      4.39165e-65        -179.994      4.39165e-65        -179.994          1.00004        -175.252
75.35                    1.00037         168.533      4.39166e-65        -179.993      4.39166e-65        -179.993          1.00003        -175.584
75.385                   1.00022         168.191      4.39166e-65        -179.993      4.39166e-65        -179.993          1.00003        -175.916
75.42                    1.00013         167.848      4.39166e-65        -179.992      4.39166e-65        -179.992          1.00002        -176.248
75.455                   1.00007         167.504      4.39167e-65        -179.991      4.39167e-65        -179.991          1.00001         -176.58
75.49                    1.00003         167.161      4.39167e-65        -179.991      4.39167e-65        -179.991          1.00001        -176.911
75.525                         1         166.819      4.39168e-65         -179.99      4.39168e-65         -179.99                1        -177.243
75.56                   0.999989         166.477      4.39168e-65        -179.989      4.39168e-65        -179.989         0.999998        -177.574
75.595                  0.999981         166.135      4.39169e-65        -179.989      4.39169e-65        -179.989         0.999994        -177.906
75.63                   0.999976         165.794      4.39169e-65        -179.988      4.39169e-65        -179.988         0.999991        -178.237
75.665                  0.999974         165.452       4.3917e-65        -179.988       4.3917e-65        -179.988         0.999988        -178.569
75.7                    0.999974         165.111       4.3917e-65        -179.987       4.3917e-65        -179.987         0.999986          -178.9
75.735                  0.999975          164.77      4.39171e-65        -179.986      4.39171e-65        -179.986         0.999984        -179.231
75.77                   0.999977          164.43      4.39172e-65        -179.986      4.39172e-65        -179.986         0.999983        -179.563
75.805                  0.999979         164.089      4.39172e-65        -179.985      4.39172e-65        -179.985         0.999983        -179.894
75.84                   0.999982         163.748      4.29192e-65        -179.984      4.29192e-65        -179.984         0.999984         179.774
75.875                  0.999985         163.408      4.29193e-65        -179.984      4.29193e-65        -179.984         0.999985         179.443
75.91                   0.999988         163.068      4.29193e-65        -179.983      4.29193e-65        -179.983         0.999986         179.111
75.945                   0.99999         162.727      4.29194e-65        -179.982      4.29194e-65        -179.982         0.999988          178.78
75.98                   0.999993         162.387      4.29195e-65        -179.982      4.29195e-65        -179.982          0.99999         178.448
76.015                  0.999996         162.047      4.29196e-65        -179.981      4.29196e-65        -179.981         0.999993         178.116
76.05                   0.999998         161.707      4.29196e-65        -179.981      4.29196e-65        -179.981         0.999996         177.784
76.085                         1         161.367      4.29197e-65         -179.98      4.29197e-65         -179.98         0.999999         177.452
76.12                          1         161.027      4.29198e-65        -179.979      4.29198e-65        -179.979                1          177.12
76.155                         1         160.687      4.29199e-65        -179.979      4.29199e-65        -179.979          1.00001         176.788
76.19                    1.00001         160.347        4.292e-65        -179.978        4.292e-65        -179.978          1.00001         176.456
76.225                   1.00001         160.007      4.29201e-65        -179.977      4.29201e-65        -179.977          1.00001         176.124
76.26                    1.00001         159.667      4.29202e-65        -179.977      4.29202e-65        -179.977          1.00002         175.791
76.295                   1.00001         159.327      4.29203e-65        -179.976      4.29203e-65        -179.976          1.00002         175.458
76.33                    1.00001         158.987      4.29204e-65        -179.976      4.29204e-65        -179.976          1.00002         175.125
76.365                   1.00001         158.647      4.29205e-65        -179.975      4.29205e-65        -179.975          1.00003         174.792
76.4                     1.00001         158.307      4.19225e-65        -179.974      4.19225e-65        -179.974          1.00003         174.459
76.435                   1.00001         157.967      4.19226e-65        -179.974      4.19226e-65        -179.974          1.00003         174.125
76.47                    1.00001         157.628      4.19227e-65        -179.973      4.19227e-65        -179.973          1.00003         173.791
76.505                   1.00001         157.288      4.19228e-65        -179.972      4.19228e-65        -179.972          1.00003         173.456
76.54                    1.00001         156.948       4.1923e-65        -179.972       4.1923e-65        -179.972          1.00003         173.121
76.575                         1         156.608      4.19231e-65        -179.971      4.19231e-65        -179.971          1.00002         172.786
76.61                          1         156.269      4.19232e-65        -179.971      4.19232e-65        -179.971          1.00001         172.449
76.645                         1         155.929      4.19233e-65         -179.97      4.19233e-65         -179.97         0.999998         172.112
76.68                   0.999997         155.589      4.19235e-65        -179.969      4.19235e-65        -179.969         0.999973         171.773
76.715                  0.999994         155.249      4.19236e-65        -179.969      4.19236e-65        -179.969         0.999934         171.433
76.75                   0.999991          154.91      4.19237e-65        -179.968      4.19237e-65        -179.968         0.999871          171.09
76.785                  0.999987          154.57      4.19239e-65        -179.968      4.19239e-65        -179.968         0.999766         170.744
76.82                   0.999983          154.23       4.1924e-65        -179.967       4.1924e-65        -179.967         0.999585         170.393
76.855                  0.999978         153.891      4.19242e-65        -179.966      4.19242e-65        -179.966         0.999248         170.036
76.89                   0.999972         153.551      4.19244e-65        -179.966      4.19244e-65        -179.966          0.99857         169.673
76.925                  0.999966         153.211      4.09264e-65        -179.965      4.09264e-65        -179.965         0.997141         169.315
76.96                   0.999958         152.871      4.09266e-65        -179.964      4.09266e-65        -179.964         0.994724         169.036
76.995                   0.99995         152.532      4.09268e-65        -179.964      4.09268e-65        -179.964         0.994016         168.897
77.03                    0.99994         152.192      4.09268e-65        -179.964      4.09268e-65        -179.964         0.996046         168.673
77.065                  0.999929         151.852      4.09269e-65        -179.963      4.09269e-65        -179.963          0.99768         168.344
77.1                    0.999915         151.513      4.09271e-65        -179.962      4.09271e-65        -179.962          0.99856         167.991
77.135                  0.999898         151.173      4.09272e-65        -179.962      4.09272e-65        -179.962         0.999041         167.639
77.17                   0.999878         150.833      4.09274e-65        -179.961      4.09274e-65        -179.961         0.999326          167.29
77.205                  0.999853         150.494      4.09275e-65         -179.96      4.09275e-65         -179.96         0.999507         166.945
77.24                   0.999821         150.154      4.09277e-65         -179.96      4.09277e-65         -179.96         0.999629         166.602
77.275                  0.999779         149.815      4.09278e-65        -179.959      4.09278e-65        -179.959         0.999715         166.262
77.31                   0.999726         149.477       4.0928e-65        -179.959       4.0928e-65        -179.959         0.999779         165.922
77.345                  0.999665          149.14      4.09282e-65        -179.958      4.09282e-65        -179.958         0.999827         165.584
77.38                   0.999614         148.806      4.09284e-65        -179.957      4.09284e-65        -179.957         0.999864         165.246
77.415                  0.999619         148.474      4.09285e-65        -179.957      4.09285e-65        -179.957         0.999894         164.909
77.45                   0.999712         148.141      4.09287e-65        -179.956      4.09287e-65        -179.956         0.999918         164.572
77.485                  0.999838         147.803      3.99306e-65        -179.956      3.99306e-65        -179.956         0.999937         164.236
77.52                   0.999931         147.462      3.99308e-65        -179.955      3.99308e-65        -179.955         0.999952           163.9
77.555                  0.999982          147.12       3.9931e-65        -179.955       3.9931e-65        -179.955         0.999965         163.564
77.59                    1.00001         146.778      3.99312e-65        -179.954      3.99312e-65        -179.954         0.999975         163.228
77.625                   1.00001         146.436      3.99314e-65        -179.953      3.99314e-65        -179.953         0.999983         162.892
77.66                    1.00002         146.095      3.99316e-65        -179.953      3.99316e-65        -179.953          0.99999         162.557
77.695                   1.00001         145.754      3.99318e-65        -179.952      3.99318e-65        -179.952         0.999995         162.221
77.73                          1         145.414       3.9932e-65        -179.952       3.9932e-65        -179.952                1         161.886
77.765                  0.999996         145.074      3.99322e-65        -179.951      3.99322e-65        -179.951                1          161.55
77.8                    0.999985         144.733      3.99324e-65         -179.95      3.99324e-65         -179.95          1.00001         161.215
77.835                  0.999972         144.393      3.99326e-65         -179.95      3.99326e-65         -179.95          1.00001         160.879
77.87                   0.999957         144.053      3.99328e-65        -179.949      3.99328e-65        -179.949          1.00001         160.544
77.905                  0.999939         143.713       3.9933e-65        -179.949       3.9933e-65        -179.949          1.00001         160.208
77.94                   0.999917         143.373      3.99332e-65        -179.948      3.99332e-65        -179.948          1.00001         159.873
77.975                  0.999888         143.034      3.99334e-65        -179.948      3.99334e-65        -179.948          1.00001         159.537
78.01                    0.99985         142.694      3.89353e-65        -179.947      3.89353e-65        -179.947          1.00001         159.202
78.045                    0.9998         142.356      3.89355e-65        -179.947      3.89355e-65        -179.947          1.00001         158.867
78.08                   0.999744         142.019      3.89357e-65        -179.946      3.89357e-65        -179.946          1.00001         158.531
78.115                  0.999706         141.685       3.8936e-65        -179.945       3.8936e-65        -179.945          1.00001         158.196
78.15                   0.999739         141.352      3.89362e-65        -179.945      3.89362e-65        -179.945          1.00001         157.861
78.185                  0.999836         141.016      3.89364e-65        -179.944      3.89364e-65        -179.944          1.00001         157.525
78.22                   0.999926         140.676      3.89366e-65        -179.944      3.89366e-65        -179.944          1.00001          157.19
78.255                   0.99998         140.335      3.89368e-65        -179.943      3.89368e-65        -179.943          1.00001         156.855
78.29                    1.00001         139.994      3.89371e-65        -179.943      3.89371e-65        -179.943          1.00001         156.521
78.325                   1.00002         139.653      3.89373e-65        -179.942      3.89373e-65        -179.942          1.00001         156.186
78.36                    1.00003         139.312      3.89375e-65        -179.942      3.89375e-65        -179.942          1.00001         155.852
78.395                   1.00003         138.971      3.89378e-65        -179.941      3.89378e-65        -179.941          1.00001         155.517
78.43                    1.00003         138.631       3.8938e-65        -179.941       3.8938e-65        -179.941          1.00001         155.183
78.465                   1.00003         138.291      3.89382e-65         -179.94      3.89382e-65         -179.94          1.00001          154.85
78.5                     1.00002         137.951      3.89385e-65        -179.939      3.89385e-65        -179.939          1.00001         154.516
78.535                   1.00002         137.612      3.89387e-65        -179.939      3.89387e-65        -179.939          1.00001         154.183
78.57                    1.00002         137.272      3.79405e-65        -179.938      3.79405e-65        -179.938          1.00001          153.85
78.605                   1.00002         136.932      3.79408e-65        -179.938      3.79408e-65        -179.938                1         153.517
78.64                    1.00002         136.593       3.7941e-65        -179.937       3.7941e-65        -179.937                1         153.184
78.675                   1.00001         136.253      3.79413e-65        -179.937      3.79413e-65        -179.937                1         152.852
78.71                    1.00001         135.914      3.79415e-65        -179.936      3.79415e-65        -179.936                1         152.519
78.745                   1.00001         135.574      3.79418e-65        -179.936      3.79418e-65        -179.936                1         152.187
78.78                    1.00001         135.235       3.7942e-65        -179.935       3.7942e-65        -179.935                1         151.855
78.815                   1.00001         134.895      3.79423e-65        -179.935      3.79423e-65        -179.935                1         151.524
78.85                    1.00001         134.556      3.79425e-65        -179.934      3.79425e-65        -179.934         0.999999         151.192
78.885                   1.00001         134.216      3.79428e-65        -179.934      3.79428e-65        -179.934         0.999998          150.86
78.92                    1.00002         133.877       3.7943e-65        -179.933       3.7943e-65        -179.933         0.999997         150.529
78.955                   1.00002         133.538      3.79433e-65        -179.933      3.79433e-65        -179.933         0.999997         150.198
78.99                    1.00002         133.198      3.79436e-65        -179.932      3.79436e-65        -179.932         0.999996         149.867
79.025                   1.00003         132.859      3.79438e-65        -179.932      3.79438e-65        -179.932         0.999995         149.535
79.06                    1.00004         132.519      3.79441e-65        -179.931      3.79441e-65        -179.931         0.999995         149.204
79.095                   1.00005          132.18      3.79444e-65        -179.931      3.79444e-65        -179.931         0.999994         148.873
79.13                    1.00006          131.84      3.69461e-65         -179.93      3.69461e-65         -179.93         0.999994         148.543
79.165                   1.00008           131.5      3.69463e-65         -179.93      3.69463e-65         -179.93         0.999994         148.212
79.2                     1.00009          131.16      3.69466e-65        -179.929      3.69466e-65        -179.929         0.999994         147.881
79.235                    1.0001          130.82      3.69469e-65        -179.929      3.69469e-65        -179.929         0.999994          147.55
79.27                    1.00011         130.479      3.69472e-65        -179.928      3.69472e-65        -179.928         0.999995         147.219
79.305                    1.0001         130.138      3.69474e-65        -179.928      3.69474e-65        -179.928         0.999996         146.889
79.34                    1.00009         129.797      3.69477e-65        -179.927      3.69477e-65        -179.927         0.999997         146.558
79.375                   1.00008         129.457                0               0                0               0         0.999999         146.228
79.41                    1.00006         129.117      3.69483e-65        -179.926      3.69483e-65        -179.926                1         145.897
79.445                   1.00005         128.777      3.69485e-65        -179.926      3.69485e-65        -179.926                1         145.567
79.48                    1.00004         128.437      3.69488e-65        -179.926      3.69488e-65        -179.926          1.00001         145.237
79.515                   1.00003         128.098      3.69491e-65        -179.925      3.69491e-65        -179.925          1.00001         144.908
79.55                    1.00002         127.758      3.69494e-65        -179.925      3.69494e-65        -179.925          1.00002         144.579
79.585                   1.00001         127.419      3.69497e-65        -179.924      3.69497e-65        -179.924          1.00003          144.25
79.62                    1.00001         127.079      3.69499e-65        -179.924      3.69499e-65        -179.924          1.00004         143.923
79.655                         1          126.74      3.59516e-65        -179.923      3.59516e-65        -179.923          1.00006         143.598
79.69                   0.999999           126.4      3.59519e-65        -179.923      3.59519e-65        -179.923          1.00011         143.278
79.725                  0.999997         126.061      3.59521e-65        -179.922      3.59521e-65        -179.922          1.00025         142.972
79.76                   0.999995         125.721      3.59524e-65        -179.922      3.59524e-65        -179.922          1.00121         142.721
79.795                  0.999993         125.382      3.59527e-65        -179.921      3.59527e-65        -179.921          1.00272         142.014
79.83                   0.999992         125.042      3.59531e-65        -179.921      3.59531e-65        -179.921           1.0002         141.823
79.865                  0.999992         124.703      3.59533e-65        -179.921      3.59533e-65        -179.921          1.00004         141.527
79.9                    0.999991         124.363      3.59536e-65         -179.92      3.59536e-65         -179.92          1.00001          141.21
79.935                  0.999991         124.023      3.59539e-65         -179.92      3.59539e-65         -179.92         0.999997         140.886
79.97                   0.999991         123.684      3.59542e-65        -179.919      3.59542e-65        -179.919         0.999994         140.559
80.005                  0.999991         123.344      3.59545e-65        -179.919      3.59545e-65        -179.919         0.999993         140.231
80.04                   0.999992         123.004      3.59548e-65        -179.918      3.59548e-65        -179.918         0.999993         139.902
80.075                  0.999993         122.664      3.59551e-65        -179.918      3.59551e-65        -179.918         0.999993         139.572
80.11                   0.999993         122.325      3.59554e-65        -179.918      3.59554e-65        -179.918         0.999994         139.241
80.145                  0.999994         121.985      3.59557e-65        -179.917      3.59557e-65        -179.917         0.999995          138.91
80.18                   0.999995         121.645       3.5956e-65        -179.917       3.5956e-65        -179.917         0.999996         138.579
80.215                  0.999996         121.305      3.49575e-65        -179.916      3.49575e-65        -179.916         0.999997         138.248
80.25                   0.999997         120.965      3.49578e-65        -179.916      3.49578e-65        -179.916         0.999998         137.917
80.285                  0.999999         120.625      3.49581e-65        -179.916      3.49581e-65        -179.916         0.999999         137.585
80.32                          1         120.285      3.49585e-65        -179.915      3.49585e-65        -179.915                1         137.254
80.355                         1         119.945      3.49588e-65        -179.915      3.49588e-65        -179.915                1         136.922
80.39                          1         119.605      3.49591e-65        -179.914      3.49591e-65        -179.914                1          136.59
80.425                         1         119.265      3.49594e-65        -179.914      3.49594e-65        -179.914                1         136.258
80.46                    1.00001         118.925      3.49597e-65        -179.914      3.49597e-65        -179.914                1         135.926
80.495                   1.00001         118.584        3.496e-65        -179.913        3.496e-65        -179.913                1         135.594
80.53                    1.00001         118.244      3.49603e-65        -179.913      3.49603e-65        -179.913                1         135.262
80.565                   1.00001         117.903      3.49606e-65        -179.912      3.49606e-65        -179.912          1.00001          134.93
80.6                     1.00001         117.563      3.49609e-65        -179.912      3.49609e-65        -179.912          1.00001         134.598
80.635                   1.00001         117.222      3.49612e-65        -179.912      3.49612e-65        -179.912          1.00001         134.266
80.67                          1         116.881      3.49616e-65        -179.911      3.49616e-65        -179.911          1.00001         133.934
80.705                  0.999992         116.539      3.49619e-65        -179.911      3.49619e-65        -179.911          1.00001         133.602
80.74                   0.999974         116.197      3.49622e-65        -179.911      3.49622e-65        -179.911          1.00001         133.269
80.775                  0.999941         115.855      3.39636e-65         -179.91      3.39636e-65         -179.91          1.00001         132.937
80.81                   0.999877         115.512      3.39639e-65         -179.91      3.39639e-65         -179.91          1.00001         132.605
80.845                  0.999763         115.171      3.39642e-65        -179.909      3.39642e-65        -179.909          1.00001         132.272
80.88                   0.999617         114.835      3.39645e-65        -179.909      3.39645e-65        -179.909          1.00001          131.94
80.915                  0.999557         114.505      3.39649e-65        -179.909      3.39649e-65        -179.909          1.00001         131.607
80.95                   0.999626         114.173      3.39652e-65        -179.908      3.39652e-65        -179.908          1.00001         131.274
80.985                  0.999724         113.836      3.39655e-65        -179.908      3.39655e-65        -179.908          1.00001         130.942
81.02                   0.999801         113.496      3.39658e-65        -179.908      3.39658e-65        -179.908          1.00002         130.609
81.055                  0.999854         113.156      3.39661e-65        -179.907      3.39661e-65        -179.907          1.00003         130.275
81.09                    0.99989         112.814      3.39665e-65        -179.907      3.39665e-65        -179.907          1.00006         129.942
81.125                  0.999916         112.473      3.39668e-65        -179.907      3.39668e-65        -179.907          1.00012         129.611
81.16                   0.999935         112.132      3.39671e-65        -179.906      3.39671e-65        -179.906           1.0001         129.283
81.195                   0.99995          111.79      3.39674e-65        -179.906      3.39674e-65        -179.906          1.00006         128.951
81.23                   0.999961         111.449      3.39678e-65        -179.906      3.39678e-65        -179.906          1.00004         128.618
81.265                  0.999971         111.107      3.39681e-65        -179.905      3.39681e-65        -179.905          1.00003         128.285
81.3                    0.999979         110.766      3.29693e-65        -179.905      3.29693e-65        -179.905          1.00002         127.952
81.335                  0.999986         110.424      3.29697e-65        -179.905      3.29697e-65        -179.905          1.00002         127.619
81.37                   0.999992         110.081        3.297e-65        -179.905        3.297e-65        -179.905          1.00002         127.286
81.405                  0.999997         109.739      3.29703e-65        -179.904      3.29703e-65        -179.904          1.00002         126.953
81.44                          1         109.395      3.29706e-65        -179.904      3.29706e-65        -179.904          1.00002          126.62
81.475                   1.00001         109.051       3.2971e-65        -179.904       3.2971e-65        -179.904          1.00001         126.287
81.51                    1.00001         108.706      3.29713e-65        -179.903      3.29713e-65        -179.903          1.00001         125.954
81.545                   1.00001         108.358      3.29716e-65        -179.903      3.29716e-65        -179.903          1.00001         125.621
81.58                    1.00001         108.007       3.2972e-65        -179.903       3.2972e-65        -179.903          1.00001         125.288
81.615                   1.00001         107.649      3.29723e-65        -179.902      3.29723e-65        -179.902          1.00001         124.955
81.65                          1          107.27      3.29727e-65        -179.902      3.29727e-65        -179.902          1.00001         124.621
81.685                  0.999913         106.804      3.29731e-65        -179.902      3.29731e-65        -179.902          1.00001         124.288
81.72                   0.993562         108.203      3.29725e-65        -179.902      3.29725e-65        -179.902          1.00001         123.955
81.755                  0.999913         106.541      3.29735e-65        -179.901      3.29735e-65        -179.901          1.00001         123.622
81.79                    0.99999         106.115      3.29739e-65        -179.901      3.29739e-65        -179.901          1.00001         123.288
81.825                   1.00001         105.744      3.29742e-65        -179.901      3.29742e-65        -179.901          1.00001         122.955
81.86                    1.00002         105.388      3.19753e-65        -179.901      3.19753e-65        -179.901          1.00001         122.621
81.895                   1.00002         105.038      3.19757e-65          -179.9      3.19757e-65          -179.9          1.00001         122.287