! TOUCHSTONE file generated by CST MICROWAVE STUDIO
! Date and time: Wed Feb 14 15:11:40 2024
! Project name: metal_rotado.cst
! Parameters = {angY=1}
! Header version: 2018
! Port assignment regex: !\s*Touchstone port\s*([0-9]+)\s*=\s*(CST MWS port|CST DS port)\s*([0-9]+|Zmin|Zmax)\s*\(\"(.*)\"\)(\s*mode\s*([0-9]+))?.*
! Touchstone port assignment:
! Touchstone port 1 = CST MWS port 1 ("")
! Touchstone port 2 = CST MWS port 2 ("")
# GHz S MA R 376.7
75                             1         164.053                0               0                0               0                1        -164.238
75.035                  0.999999         163.708      4.28536e-65        -179.999      4.28536e-65        -179.999                1        -164.569
75.07                   0.999999         163.363      4.28536e-65        -179.997      4.28536e-65        -179.997                1        -164.899
75.105                  0.999999         163.018      4.28536e-65        -179.996      4.28536e-65        -179.996                1         -165.23
75.14                   0.999998         162.674      4.28537e-65        -179.995      4.28537e-65        -179.995                1         -165.56
75.175                  0.999998         162.329      4.28537e-65        -179.994      4.28537e-65        -179.994                1        -165.891
75.21                   0.999998         161.984      4.28537e-65        -179.993      4.28537e-65        -179.993                1        -166.222
75.245                  0.999999          161.64      4.28538e-65        -179.992      4.28538e-65        -179.992                1        -166.552
75.28                   0.999999         161.295      4.18572e-65         -179.99      4.18572e-65         -179.99                1        -166.883
75.315                  0.999999         160.951      4.18573e-65        -179.989      4.18573e-65        -179.989                1        -167.214
75.35                   0.999999         160.606      4.18573e-65        -179.988      4.18573e-65        -179.988                1        -167.544
75.385                         1         160.262      4.18574e-65        -179.987      4.18574e-65        -179.987          1.00001        -167.875
75.42                          1         159.917      4.18574e-65        -179.986      4.18574e-65        -179.986          1.00001        -168.206
75.455                         1         159.573      4.18575e-65        -179.985      4.18575e-65        -179.985          1.00001        -168.537
75.49                          1         159.228      4.18576e-65        -179.984      4.18576e-65        -179.984          1.00001        -168.868
75.525                         1         158.884      4.18576e-65        -179.982      4.18576e-65        -179.982                1        -169.199
75.56                          1         158.539      4.18577e-65        -179.981      4.18577e-65        -179.981         0.999997        -169.532
75.595                         1         158.195      4.18578e-65         -179.98      4.18578e-65         -179.98         0.999975        -169.865
75.63                   0.999999          157.85      4.18579e-65        -179.979      4.18579e-65        -179.979         0.999887        -170.201
75.665                  0.999999         157.506       4.1858e-65        -179.978       4.1858e-65        -179.978         0.999542        -170.528
75.7                    0.999999         157.162      4.18581e-65        -179.977      4.18581e-65        -179.977          0.99968        -170.834
75.735                  0.999998         156.817      4.18582e-65        -179.976      4.18582e-65        -179.976         0.999868        -171.166
75.77                   0.999998         156.473      4.18583e-65        -179.974      4.18583e-65        -179.974          0.99993        -171.499
75.805                  0.999997         156.128      4.18585e-65        -179.973      4.18585e-65        -179.973         0.999957        -171.831
75.84                   0.999996         155.784      4.08619e-65        -179.972      4.08619e-65        -179.972         0.999971        -172.162
75.875                  0.999996         155.439      4.08621e-65        -179.971      4.08621e-65        -179.971         0.999979        -172.494
75.91                   0.999995         155.095      4.08622e-65         -179.97      4.08622e-65         -179.97         0.999985        -172.825
75.945                  0.999994          154.75      4.08623e-65        -179.969      4.08623e-65        -179.969         0.999989        -173.155
75.98                   0.999993         154.406      4.08625e-65        -179.968      4.08625e-65        -179.968         0.999993        -173.486
76.015                  0.999993         154.061      4.08626e-65        -179.966      4.08626e-65        -179.966         0.999995        -173.817
76.05                   0.999992         153.717      4.08628e-65        -179.965      4.08628e-65        -179.965         0.999998        -174.147
76.085                  0.999991         153.372      4.08629e-65        -179.964      4.08629e-65        -179.964                1        -174.478
76.12                   0.999991         153.028      4.08631e-65        -179.963      4.08631e-65        -179.963                1        -174.809
76.155                   0.99999         152.683      4.08632e-65        -179.962      4.08632e-65        -179.962                1        -175.139
76.19                    0.99999         152.339      4.08634e-65        -179.961      4.08634e-65        -179.961                1         -175.47
76.225                  0.999989         151.994      4.08636e-65         -179.96      4.08636e-65         -179.96          1.00001        -175.801
76.26                   0.999989         151.649      4.08638e-65        -179.959      4.08638e-65        -179.959          1.00001        -176.131
76.295                  0.999989         151.305      4.08639e-65        -179.957      4.08639e-65        -179.957          1.00001        -176.462
76.33                   0.999989          150.96      4.08641e-65        -179.956      4.08641e-65        -179.956          1.00001        -176.793
76.365                  0.999989         150.615      4.08643e-65        -179.955      4.08643e-65        -179.955          1.00001        -177.123
76.4                     0.99999          150.27      3.98678e-65        -179.954      3.98678e-65        -179.954          1.00001        -177.454
76.435                  0.999991         149.925       3.9868e-65        -179.953       3.9868e-65        -179.953          1.00001        -177.785
76.47                   0.999991         149.581      3.98682e-65        -179.952      3.98682e-65        -179.952          1.00001        -178.116
76.505                  0.999993         149.236      3.98684e-65        -179.951      3.98684e-65        -179.951          1.00001        -178.447
76.54                   0.999994         148.891      3.98686e-65         -179.95      3.98686e-65         -179.95          1.00001        -178.778
76.575                  0.999996         148.545      3.98688e-65        -179.948      3.98688e-65        -179.948                1        -179.109
76.61                   0.999998           148.2      3.98691e-65        -179.947      3.98691e-65        -179.947                1         -179.44
76.645                         1         147.855      3.98693e-65        -179.946      3.98693e-65        -179.946                1        -179.771
76.68                          1         147.509      3.98695e-65        -179.945      3.98695e-65        -179.945         0.999995         179.897
76.715                   1.00001         147.164      3.98697e-65        -179.944      3.98697e-65        -179.944          0.99999         179.566
76.75                    1.00001         146.818        3.987e-65        -179.943        3.987e-65        -179.943         0.999982         179.234
76.785                   1.00002         146.471      3.98702e-65        -179.942      3.98702e-65        -179.942         0.999972         178.902
76.82                    1.00003         146.124      3.98705e-65        -179.941      3.98705e-65        -179.941         0.999958         178.569
76.855                   1.00004         145.776       3.8874e-65         -179.94       3.8874e-65         -179.94          0.99994         178.236
76.89                    1.00005         145.426      3.88742e-65        -179.939      3.88742e-65        -179.939         0.999916         177.903
76.925                   1.00009         145.073      3.88745e-65        -179.937      3.88745e-65        -179.937         0.999886         177.569
76.96                    1.00016          144.71      3.88747e-65        -179.936      3.88747e-65        -179.936         0.999853         177.235
76.995                   1.00054         144.308       3.8875e-65        -179.935       3.8875e-65        -179.935         0.999827         176.901
77.03                    1.00425         144.405      3.88748e-65        -179.934      3.88748e-65        -179.934         0.999841         176.566
77.065                   1.00006         143.808                0               0                0               0                1         176.229
77.1                    0.999998         143.426      3.88757e-65        -179.932      3.88757e-65        -179.932          1.00064         175.896
77.135                  0.999996         143.068      3.78791e-65        -179.931      3.78791e-65        -179.931          1.00169         175.648
77.17                          1         142.716      3.78794e-65         -179.93      3.78794e-65         -179.93          1.00038         175.381
77.205                   1.00001         142.366      3.78798e-65        -179.929      3.78798e-65        -179.929         0.999826         175.035
77.24                    1.00001         142.019      3.78801e-65        -179.928      3.78801e-65        -179.928         0.999723         174.692
77.275                   1.00002         141.672      3.78804e-65        -179.927      3.78804e-65        -179.927         0.999726         174.354
77.31                    1.00003         141.325      3.78806e-65        -179.926      3.78806e-65        -179.926         0.999755         174.018
77.345                   1.00004         140.979      3.78809e-65        -179.925      3.78809e-65        -179.925         0.999787         173.684
77.38                    1.00004         140.633      3.78812e-65        -179.924      3.78812e-65        -179.924         0.999816         173.351
77.415                   1.00005         140.287      3.78815e-65        -179.923      3.78815e-65        -179.923         0.999841         173.018
77.45                    1.00006         139.942      3.78818e-65        -179.922      3.78818e-65        -179.922         0.999863         172.685
77.485                   1.00007         139.596      3.68853e-65        -179.921      3.68853e-65        -179.921         0.999881         172.353
77.52                    1.00008         139.251      3.68856e-65        -179.919      3.68856e-65        -179.919         0.999896         172.021
77.555                   1.00009         138.905      3.68859e-65        -179.918      3.68859e-65        -179.918          0.99991         171.689
77.59                     1.0001          138.56      3.68862e-65        -179.917      3.68862e-65        -179.917         0.999921         171.357
77.625                   1.00012         138.215      3.68865e-65        -179.916      3.68865e-65        -179.916         0.999932         171.026
77.66                    1.00013          137.87      3.68868e-65        -179.915      3.68868e-65        -179.915         0.999941         170.694
77.695                   1.00015         137.525      3.68872e-65        -179.914      3.68872e-65        -179.914          0.99995         170.362
77.73                    1.00018         137.181      3.68875e-65        -179.913      3.68875e-65        -179.913         0.999959         170.029
77.765                    1.0002         136.838      3.68878e-65        -179.912      3.68878e-65        -179.912         0.999971         169.696
77.8                     1.00019         136.496      3.68882e-65        -179.911      3.68882e-65        -179.911          0.99999         169.361
77.835                   1.00014         136.154      3.68885e-65         -179.91      3.68885e-65         -179.91          1.00005          169.02
77.87                    1.00005         135.808      3.68888e-65        -179.909      3.68888e-65        -179.909          1.00055         168.652
77.905                   1.00001         135.461      3.58921e-65        -179.908      3.58921e-65        -179.908          1.00062         168.453
77.94                   0.999996         135.113      3.58925e-65        -179.907      3.58925e-65        -179.907          1.00007         168.083
77.975                  0.999996         134.766      3.58929e-65        -179.906      3.58929e-65        -179.906          1.00001         167.742
78.01                          1         134.419      3.58933e-65        -179.905      3.58933e-65        -179.905                1         167.407
78.045                         1         134.073      3.58936e-65        -179.904      3.58936e-65        -179.904         0.999996         167.074
78.08                    1.00001         133.727       3.5894e-65        -179.903       3.5894e-65        -179.903         0.999995         166.742
78.115                   1.00001         133.381      3.58943e-65        -179.902      3.58943e-65        -179.902         0.999995         166.411
78.15                    1.00001         133.035      3.48976e-65        -179.901      3.48976e-65        -179.901         0.999996          166.08
78.185                   1.00001          132.69       3.4898e-65          -179.9       3.4898e-65          -179.9         0.999997         165.749
78.22                    1.00001         132.344      3.48984e-65        -179.899      3.48984e-65        -179.899         0.999998         165.418
78.255                   1.00001         131.999      3.48987e-65        -179.898      3.48987e-65        -179.898         0.999999         165.087
78.29                          1         131.654      3.48991e-65        -179.897      3.48991e-65        -179.897                1         164.756
78.325                         1         131.308      3.48995e-65        -179.896      3.48995e-65        -179.896                1         164.426
78.36                   0.999998         130.963      3.48999e-65        -179.895      3.48999e-65        -179.895                1         164.095
78.395                  0.999995         130.618      3.49002e-65        -179.894      3.49002e-65        -179.894                1         163.764
78.43                   0.999993         130.273      3.49006e-65        -179.893      3.49006e-65        -179.893                1         163.434
78.465                  0.999992         129.928       3.4901e-65        -179.892       3.4901e-65        -179.892          1.00001         163.103
78.5                    0.999991         129.583      3.49014e-65        -179.891      3.49014e-65        -179.891          1.00001         162.772
78.535                   0.99999         129.238      3.49018e-65        -179.891      3.49018e-65        -179.891          1.00001         162.441
78.57                    0.99999         128.893       3.3905e-65         -179.89       3.3905e-65         -179.89          1.00001          162.11
78.605                   0.99999         128.548      3.39054e-65        -179.889      3.39054e-65        -179.889          1.00001         161.778
78.64                   0.999991         128.203      3.39058e-65        -179.888      3.39058e-65        -179.888          1.00001         161.447
78.675                  0.999992         127.858      3.39062e-65        -179.887      3.39062e-65        -179.887          1.00001         161.114
78.71                   0.999994         127.513      3.39066e-65        -179.886      3.39066e-65        -179.886          1.00001         160.781
78.745                  0.999995         127.167       3.3907e-65        -179.885       3.3907e-65        -179.885          1.00001         160.447
78.78                   0.999997         126.822      3.39074e-65        -179.884      3.39074e-65        -179.884          1.00001         160.111
78.815                  0.999999         126.477      3.39078e-65        -179.883      3.39078e-65        -179.883                1         159.771
78.85                          1         126.132      3.39082e-65        -179.882      3.39082e-65        -179.882         0.999986         159.423
78.885                         1         125.787      3.39087e-65        -179.881      3.39087e-65        -179.881         0.999892         159.046
78.92                          1         125.442      3.39093e-65         -179.88      3.39093e-65         -179.88         0.997567          158.43
78.955                   1.00001         125.096      3.39094e-65         -179.88      3.39094e-65         -179.88         0.999218           158.7
78.99                    1.00001         124.751      3.39099e-65        -179.879      3.39099e-65        -179.879         0.999845         158.251
79.025                   1.00001         124.406      3.39103e-65        -179.878      3.39103e-65        -179.878         0.999932          157.89
79.06                    1.00001          124.06      3.39107e-65        -179.877      3.39107e-65        -179.877         0.999962         157.545
79.095                   1.00001         123.715      3.39112e-65        -179.876      3.39112e-65        -179.876         0.999976         157.207
79.13                    1.00001          123.37      3.29142e-65        -179.875      3.29142e-65        -179.875         0.999984         156.872
79.165                   1.00001         123.024      3.29146e-65        -179.874      3.29146e-65        -179.874         0.999989         156.538
79.2                     1.00001         122.679      3.29151e-65        -179.873      3.29151e-65        -179.873         0.999992         156.206
79.235                   1.00001         122.333      3.29155e-65        -179.872      3.29155e-65        -179.872         0.999995         155.874
79.27                    1.00001         121.988      3.29159e-65        -179.872      3.29159e-65        -179.872         0.999997         155.542
79.305                   1.00001         121.642      3.29164e-65        -179.871      3.29164e-65        -179.871         0.999998         155.211
79.34                          1         121.297      3.29168e-65         -179.87      3.29168e-65         -179.87         0.999999          154.88
79.375                         1         120.951                0               0                0               0                1          154.55
79.41                   0.999997         120.605      3.29177e-65        -179.868      3.29177e-65        -179.868                1         154.219
79.445                  0.999994         120.259      3.29182e-65        -179.867      3.29182e-65        -179.867                1         153.889
79.48                   0.999991         119.913      3.29186e-65        -179.867      3.29186e-65        -179.867                1         153.558
79.515                  0.999988         119.568      3.29191e-65        -179.866      3.29191e-65        -179.866                1         153.228
79.55                   0.999987         119.221      3.29195e-65        -179.865      3.29195e-65        -179.865                1         152.898
79.585                  0.999986         118.875        3.292e-65        -179.864        3.292e-65        -179.864                1         152.567
79.62                   0.999985         118.529      3.29205e-65        -179.863      3.29205e-65        -179.863                1         152.237
79.655                  0.999986         118.183      3.19233e-65        -179.862      3.19233e-65        -179.862                1         151.907
79.69                   0.999987         117.837      3.19238e-65        -179.862      3.19238e-65        -179.862                1         151.577
79.725                  0.999988         117.491      3.19243e-65        -179.861      3.19243e-65        -179.861                1         151.247
79.76                    0.99999         117.145      3.19247e-65         -179.86      3.19247e-65         -179.86                1         150.917
79.795                  0.999992         116.798      3.19252e-65        -179.859      3.19252e-65        -179.859                1         150.587
79.83                   0.999994         116.452      3.19257e-65        -179.858      3.19257e-65        -179.858                1         150.257
79.865                  0.999996         116.106      3.19261e-65        -179.858      3.19261e-65        -179.858                1         149.927
79.9                    0.999998          115.76      3.19266e-65        -179.857      3.19266e-65        -179.857                1         149.597
79.935                         1         115.414      3.19271e-65        -179.856      3.19271e-65        -179.856                1         149.267
79.97                          1         115.067      3.19276e-65        -179.855      3.19276e-65        -179.855                1         148.937
80.005                         1         114.721       3.1928e-65        -179.855       3.1928e-65        -179.855                1         148.607
80.04                          1         114.375      3.19285e-65        -179.854      3.19285e-65        -179.854                1         148.277
80.075                   1.00001         114.029       3.1929e-65        -179.853       3.1929e-65        -179.853                1         147.947
80.11                    1.00001         113.682      3.19295e-65        -179.852      3.19295e-65        -179.852                1         147.617
80.145                   1.00001         113.336        3.193e-65        -179.852        3.193e-65        -179.852                1         147.287
80.18                    1.00001          112.99      3.19305e-65        -179.851      3.19305e-65        -179.851                1         146.957
80.215                   1.00001         112.643      3.09331e-65         -179.85      3.09331e-65         -179.85                1         146.627
80.25                    1.00001         112.297      3.09336e-65        -179.849      3.09336e-65        -179.849                1         146.297
80.285                   1.00001         111.951      3.09341e-65        -179.849      3.09341e-65        -179.849                1         145.967
80.32                    1.00001         111.604      3.09346e-65        -179.848      3.09346e-65        -179.848                1         145.637
80.355                   1.00001         111.258      3.09351e-65        -179.847      3.09351e-65        -179.847                1         145.307
80.39                          1         110.911      3.09356e-65        -179.847      3.09356e-65        -179.847                1         144.977
80.425                         1         110.565       3.0936e-65        -179.846       3.0936e-65        -179.846                1         144.647
80.46                          1         110.218      3.09365e-65        -179.845      3.09365e-65        -179.845                1         144.317
80.495                         1         109.871       3.0937e-65        -179.845       3.0937e-65        -179.845                1         143.987
80.53                          1         109.525      3.09375e-65        -179.844      3.09375e-65        -179.844                1         143.657
80.565                  0.999998         109.178       3.0938e-65        -179.843       3.0938e-65        -179.843                1         143.327
80.6                    0.999996         108.831      3.09385e-65        -179.843      3.09385e-65        -179.843                1         142.997
80.635                  0.999994         108.484      3.09391e-65        -179.842      3.09391e-65        -179.842                1         142.667
80.67                   0.999992         108.138      3.09396e-65        -179.841      3.09396e-65        -179.841                1         142.337
80.705                   0.99999         107.791      3.09401e-65        -179.841      3.09401e-65        -179.841                1         142.006
80.74                   0.999988         107.444      3.09406e-65         -179.84      3.09406e-65         -179.84                1         141.676
80.775                  0.999987         107.097       2.9943e-65        -179.839       2.9943e-65        -179.839                1         141.346
80.81                   0.999986          106.75      2.99435e-65        -179.839      2.99435e-65        -179.839                1         141.016
80.845                  0.999985         106.403       2.9944e-65        -179.838       2.9944e-65        -179.838                1         140.686
80.88                   0.999986         106.056      2.99445e-65        -179.837      2.99445e-65        -179.837                1         140.356
80.915                  0.999987         105.709       2.9945e-65        -179.837       2.9945e-65        -179.837                1         140.026
80.95                   0.999991         105.361      2.99455e-65        -179.836      2.99455e-65        -179.836                1         139.695
80.985                  0.999998         105.014       2.9946e-65        -179.836       2.9946e-65        -179.836                1         139.365
81.02                    1.00001         104.667      2.99465e-65        -179.835      2.99465e-65        -179.835                1         139.035
81.055                   1.00002          104.32      2.99471e-65        -179.834      2.99471e-65        -179.834                1         138.704
81.09                    1.00005         103.973      2.99476e-65        -179.834      2.99476e-65        -179.834                1         138.374
81.125                   1.00008         103.626      2.99481e-65        -179.833      2.99481e-65        -179.833         0.999999         138.044
81.16                    1.00013          103.28      2.99486e-65        -179.833      2.99486e-65        -179.833         0.999999         137.713
81.195                   1.00018         102.935      2.99491e-65        -179.832      2.99491e-65        -179.832         0.999998         137.383
81.23                    1.00023         102.592      2.99496e-65        -179.831      2.99496e-65        -179.831         0.999996         137.052
81.265                   1.00027         102.251      2.99502e-65        -179.831      2.99502e-65        -179.831         0.999993         136.721
81.3                     1.00026          101.91      2.89523e-65         -179.83      2.89523e-65         -179.83         0.999988         136.391
81.335                   1.00022         101.569      2.89528e-65         -179.83      2.89528e-65         -179.83         0.999981          136.06
81.37                    1.00016         101.225      2.89533e-65        -179.829      2.89533e-65        -179.829          0.99997         135.729
81.405                    1.0001         100.879      2.89539e-65        -179.829      2.89539e-65        -179.829         0.999952         135.398
81.44                    1.00006         100.533      2.89544e-65        -179.828      2.89544e-65        -179.828         0.999927         135.067
81.475                   1.00003         100.186      2.89549e-65        -179.828      2.89549e-65        -179.828         0.999894         134.737
81.51                    1.00001         99.8379      2.89554e-65        -179.827      2.89554e-65        -179.827         0.999862         134.408
81.545                         1           99.49      2.89559e-65        -179.827      2.89559e-65        -179.827         0.999846          134.08
81.58                   0.999997         99.1419      2.89564e-65        -179.826      2.89564e-65        -179.826         0.999854         133.752
81.615                  0.999994         98.7938       2.8957e-65        -179.826       2.8957e-65        -179.826         0.999877         133.424
81.65                   0.999994         98.4456      2.89575e-65        -179.825      2.89575e-65        -179.825         0.999904         133.094
81.685                  0.999995         98.0973       2.8958e-65        -179.825       2.8958e-65        -179.825         0.999929         132.764
81.72                   0.999996         97.7491        2.796e-65        -179.824        2.796e-65        -179.824         0.999949         132.433
81.755                  0.999997         97.4008      2.79605e-65        -179.824      2.79605e-65        -179.824         0.999967         132.102
81.79                   0.999998         97.0525       2.7961e-65        -179.823       2.7961e-65        -179.823         0.999982         131.771
81.825                  0.999999         96.7041      2.79615e-65        -179.823      2.79615e-65        -179.823         0.999996          131.44
81.86                          1         96.3558       2.7962e-65        -179.822       2.7962e-65        -179.822          1.00001         131.109
81.895                         1         96.0075      2.79625e-65        -179.822      2.79625e-65        -179.822          1.00002         130.778