! TOUCHSTONE file generated by CST MICROWAVE STUDIO
! Date and time: Fri Feb 16 17:58:28 2024
! Project name: metal_rotado.cst
! Parameters = {angX=0.5; angY=2}
! Header version: 2018
! Port assignment regex: !\s*Touchstone port\s*([0-9]+)\s*=\s*(CST MWS port|CST DS port)\s*([0-9]+|Zmin|Zmax)\s*\(\"(.*)\"\)(\s*mode\s*([0-9]+))?.*
! Touchstone port assignment:
! Touchstone port 1 = CST MWS port 1 ("")
! Touchstone port 2 = CST MWS port 2 ("")
# GHz S MA R 376.7
75                      0.999076        -177.359        0.0425259         92.7031        0.0421511          92.621         0.999111        -177.388
75.035                  0.999098        -177.387        0.0420937         92.6715        0.0417454         92.6015         0.999119        -177.405
75.07                    0.99912        -177.414        0.0416682         92.6405        0.0413454         92.5818         0.999129        -177.421
75.105                   0.99914         -177.44         0.041249         92.6101        0.0409508         92.5617         0.999141        -177.437
75.14                    0.99916        -177.466        0.0408359         92.5802        0.0405615         92.5414         0.999155        -177.453
75.175                  0.999179        -177.491        0.0404287          92.551        0.0401771         92.5208          0.99917        -177.468
75.21                   0.999198        -177.516        0.0400272         92.5222        0.0397977         92.4998         0.999189        -177.483
75.245                  0.999216         -177.54        0.0396312          92.494        0.0394229         92.4785         0.999211        -177.497
75.28                   0.999233        -177.564        0.0392403         92.4663        0.0390526         92.4569         0.999237         -177.51
75.315                  0.999249        -177.587        0.0388545         92.4391        0.0386866         92.4349         0.999269        -177.523
75.35                   0.999265         -177.61        0.0384735         92.4124        0.0383247         92.4125         0.999307        -177.535
75.385                  0.999281        -177.633         0.038097         92.3861        0.0379668         92.3897         0.999355        -177.545
75.42                   0.999296        -177.655        0.0377249         92.3604        0.0376127         92.3666         0.999416        -177.555
75.455                  0.999311        -177.676        0.0373569          92.335        0.0372622         92.3429         0.999494        -177.563
75.49                   0.999325        -177.698         0.036993         92.3101        0.0369151         92.3188         0.999598         -177.57
75.525                  0.999339        -177.719        0.0366328         92.2857        0.0365713         92.2942          0.99974        -177.574
75.56                   0.999352         -177.74        0.0362761         92.2617        0.0362306         92.2691          0.99994        -177.575
75.595                  0.999365         -177.76        0.0359228         92.2381        0.0358929         92.2434                1        -177.573
75.63                   0.999378        -177.781        0.0355727         92.2149        0.0355579          92.217                1        -177.567
75.665                   0.99939          -177.8        0.0352255         92.1922        0.0352256         92.1898                1        -177.559
75.7                    0.999403         -177.82         0.034881         92.1698        0.0348957         92.1619                1        -177.555
75.735                  0.999414         -177.84        0.0345391         92.1479         0.034568          92.133                1        -177.582
75.77                   0.999426        -177.859        0.0341995         92.1264        0.0342425          92.103                1        -177.693
75.805                  0.999437        -177.878         0.033862         92.1054        0.0339189         92.0718                1        -177.889
75.84                   0.999448        -177.897        0.0335264         92.0847         0.033597          92.039                1        -178.039
75.875                  0.999459        -177.916        0.0331925         92.0646        0.0332768         92.0044                1        -178.093
75.91                    0.99947        -177.934          0.03286         92.0449         0.032958         91.9675                1          -178.1
75.945                   0.99948        -177.953        0.0325286         92.0257        0.0326404         91.9277                1        -178.096
75.98                    0.99949        -177.971        0.0321982         92.0071        0.0323239         91.8841                1        -178.092
76.015                    0.9995         -177.99        0.0318684          91.989        0.0320083         91.8353                1         -178.09
76.05                    0.99951        -178.008         0.031539         91.9717        0.0316932         91.7791                1        -178.091
76.085                  0.999519        -178.026        0.0312096         91.9551        0.0313782         91.7121         0.999949        -178.095
76.12                   0.999529        -178.044        0.0308798         91.9394        0.0310621         91.6282         0.999837        -178.101
76.155                  0.999538        -178.062        0.0305494         91.9248        0.0307421         91.5162         0.999756        -178.109
76.19                   0.999547         -178.08        0.0302179         91.9115        0.0304094          91.355         0.999697        -178.118
76.225                  0.999556        -178.098        0.0298847            91.9        0.0300326         91.1105         0.999654        -178.129
76.26                   0.999564        -178.116        0.0295493          91.891        0.0295053         90.8262         0.999622        -178.141
76.295                  0.999572        -178.134         0.029211         91.8853        0.0288173         91.1374           0.9996        -178.153
76.33                    0.99958        -178.152        0.0288686          91.885        0.0285385         91.8417         0.999585        -178.167
76.365                  0.999588        -178.171         0.028521         91.8935        0.0283838         92.0218         0.999575        -178.181
76.4                    0.999594        -178.189         0.028166         91.9185        0.0281552         92.0077         0.999571        -178.196
76.435                    0.9996        -178.208        0.0278012         91.9797        0.0278766         91.9571         0.999571        -178.212
76.47                   0.999603        -178.227        0.0274295          92.138        0.0275699         91.9032         0.999575        -178.228
76.505                  0.999598        -178.246        0.0271444         92.5699        0.0272449         91.8526         0.999582        -178.246
76.54                   0.999554        -178.267        0.0272243         92.3832        0.0269064         91.8062         0.999592        -178.264
76.575                   0.99964        -178.268        0.0267788         91.7475        0.0265559         91.7636         0.999606        -178.283
76.61                   0.999691          -178.3        0.0263061         91.6272        0.0261942         91.7246         0.999623        -178.303
76.645                  0.999687        -178.321        0.0258758            91.6        0.0258209         91.6888         0.999642        -178.324
76.68                   0.999689        -178.343        0.0254588         91.5907        0.0254353         91.6563         0.999663        -178.347
76.715                  0.999694        -178.364        0.0250421          91.586        0.0250361         91.6274         0.999684        -178.372
76.75                   0.999701        -178.386         0.024619          91.583        0.0246217         91.6022           0.9997        -178.399
76.785                  0.999707        -178.409        0.0241852         91.5806        0.0241902         91.5815         0.999708        -178.428
76.82                   0.999715        -178.432        0.0237369         91.5784         0.023739         91.5656         0.999698         -178.46
76.855                  0.999722        -178.457        0.0232701         91.5752        0.0232655         91.5543          0.99967        -178.493
76.89                    0.99973        -178.483        0.0227803         91.5685        0.0227664         91.5459         0.999637        -178.526
76.925                  0.999739        -178.512        0.0222614         91.5521        0.0222387         91.5339         0.999631        -178.556
76.96                   0.999751        -178.544        0.0217051         91.5111        0.0216807         91.5012         0.999683         -178.58
76.995                  0.999777        -178.586        0.0210999          91.408        0.0210964         91.4079         0.999778        -178.598
77.03                   0.999986        -178.675         0.020433         91.1403        0.0205084         91.1774         0.999863        -178.612
77.065                         1         -178.41        0.0197193         90.4186        0.0199852          90.734         0.999902        -178.627
77.1                    0.999891        -178.579        0.0192017         88.7113        0.0196368         90.2369         0.999899        -178.644
77.135                  0.999834        -178.634        0.0194733         87.6075        0.0194421         90.1952         0.999875        -178.667
77.17                   0.999822        -178.677        0.0195124         89.4701        0.0191898         90.6892         0.999847        -178.694
77.205                  0.999821        -178.719        0.0189333         91.2879        0.0187781         91.2773         0.999822        -178.726
77.24                   0.999821        -178.762        0.0182619         92.4746        0.0182279         91.6984         0.999804        -178.762
77.275                  0.999822        -178.807        0.0176307         93.1452        0.0175629         91.9257         0.999792        -178.803
77.31                   0.999822        -178.855        0.0169756         93.2064        0.0167885          92.008         0.999787        -178.849
77.345                  0.999817        -178.907        0.0161637          92.742        0.0159006         91.9982         0.999788        -178.901
77.38                   0.999807        -178.963        0.0151323         92.0791        0.0148884         91.9353         0.999793        -178.959
77.415                  0.999793        -179.021        0.0138963         91.4627        0.0137339         91.8438         0.999803        -179.025
77.45                   0.999967        -179.067         0.012472         90.9563          0.01241         91.7387         0.999816          -179.1
77.485                         1         -179.21         0.010843         90.5344        0.0108766           91.63         0.999833        -179.187
77.52                          1        -179.321        0.0089603         90.1479       0.00907483         91.5275         0.999854         -179.29
77.555                         1        -179.436       0.00674077         89.7357       0.00691474         91.4513         0.999878        -179.414
77.59                          1        -179.579       0.00405255         89.1868       0.00424517         91.4725         0.999909        -179.569
77.625                         1        -179.758      0.000666649         87.7791      0.000713259         92.1646         0.999968        -179.774
77.66                   0.999914        -179.988       0.00402065        -94.9382        0.0118732        -24.2389                1         179.781
77.695                  0.999962         179.752       0.00705376         -90.349       0.00744035        -90.1025                1         179.821
77.73                          1         179.238        0.0161016         -89.876        0.0156601        -90.7243         0.999834         179.321
77.765                  0.999796         178.539        0.0285455        -91.0394        0.0279839         -91.414         0.999574         178.608
77.8                    0.998862         177.294        0.0503768        -92.5205        0.0497769        -92.6662         0.998734         177.356
77.835                  0.995006         174.419         0.100394        -95.5297        0.0998457        -95.5725         0.994929         174.479
77.87                   0.942902         160.745         0.332058        -109.267         0.331561        -109.306          0.94261         160.883
77.905                  0.930092        -158.184         0.367339         111.739         0.371741         111.973         0.928576        -158.072
77.94                    0.98952        -171.432         0.144829         98.4915         0.147723         98.3672         0.989615        -171.406
77.975                   0.99541        -174.314        0.0950709         95.6677        0.0955506         95.6791         0.995423        -174.377
78.01                   0.996654        -175.059        0.0826422         94.8614        0.0821858         95.1042         0.996271        -175.118
78.045                   0.99849        -176.225        0.0593617         93.9228         0.052539         91.9225         0.998706        -176.205
78.08                    0.99883        -176.764        0.0483532         93.1722        0.0480454         93.1695         0.998829        -176.856
78.115                  0.993318        -177.809        0.0368048         91.8191        0.0378209         92.7771         0.998736        -177.549
78.15                          1        -179.486       0.00510848         86.3371        0.0053866         97.0204         0.999432        -179.494
78.185                  0.995641        -174.409        0.0932761          95.555         0.093423         95.5756           0.9956         -174.47
78.22                   0.998137        -176.394        0.0583872         93.8093        0.0594403         93.6304         0.998182        -176.427
78.255                  0.998632        -176.859        0.0505302         93.6367         0.051344         93.1839         0.998733        -176.886
78.29                   0.998868        -177.103        0.0465417          93.523        0.0470867         92.9468         0.998967        -177.125
78.325                  0.999015        -177.267        0.0438858         93.3683          0.04423         92.7851         0.999091        -177.285
78.36                   0.999117        -177.389        0.0418707         93.1975        0.0420835         92.6618         0.999167        -177.404
78.395                  0.999194        -177.488        0.0402339         93.0326        0.0403649          92.562         0.999221          -177.5
78.43                   0.999254        -177.569        0.0388513         92.8829        0.0389323         92.4781         0.999262         -177.58
78.465                  0.999303        -177.639        0.0376533         92.7504        0.0377041         92.4057         0.999295        -177.648
78.5                    0.999344        -177.701        0.0365958         92.6337        0.0366284         92.3419         0.999323        -177.708
78.535                  0.999378        -177.755        0.0356485         92.5309        0.0356704          92.285         0.999347        -177.762
78.57                   0.999408        -177.804        0.0347892         92.4397        0.0348048         92.2334          0.99937         -177.81
78.605                  0.999433        -177.849        0.0340005         92.3583        0.0340126         92.1862          0.99939        -177.855
78.64                   0.999456        -177.891        0.0332687         92.2849        0.0332789         92.1424         0.999409        -177.896
78.675                  0.999476        -177.929         0.032582         92.2181        0.0325912         92.1015         0.999427        -177.935
78.71                   0.999494        -177.966        0.0319298         92.1567        0.0319383         92.0626         0.999444        -177.971
78.745                   0.99951        -178.002        0.0313014         92.0996        0.0313093         92.0252         0.999461        -178.006
78.78                   0.999526        -178.037        0.0306853         92.0455        0.0306924         91.9886         0.999478        -178.041
78.815                   0.99954        -178.072        0.0300671         91.9934        0.0300732         91.9521         0.999495        -178.076
78.85                   0.999554        -178.108        0.0294261         91.9417        0.0294306         91.9142         0.999512        -178.112
78.885                  0.999569        -178.148        0.0287279         91.8881        0.0287303         91.8732         0.999532        -178.152
78.92                   0.999587        -178.194        0.0279059         91.8287        0.0279052         91.8251         0.999554        -178.198
78.955                  0.999612        -178.258        0.0268024          91.754        0.0267974         91.7606         0.999585        -178.261
78.99                   0.999658        -178.367        0.0249162          91.635        0.0249039         91.6494         0.999639         -178.37
79.025                  0.999814        -178.693        0.0192719         91.3051        0.0192414         91.2942         0.999816        -178.706
79.06                   0.998959        -175.722        0.0685023         94.2699        0.0687407         93.8575         0.998966        -176.245
79.095                  0.999394        -177.792        0.0346639         92.1925        0.0346819         92.1827         0.999401        -177.829
79.13                   0.999461        -177.983        0.0314022         91.9915        0.0314041         92.0074         0.999476        -178.005
79.165                  0.999486        -178.065        0.0300005          91.903        0.0299937         91.9296         0.999511        -178.083
79.2                    0.999497        -178.115        0.0291347         91.8472         0.029121         91.8805         0.999534        -178.131
79.235                  0.999502        -178.152        0.0284999         91.8058        0.0284799         91.8439         0.999552        -178.167
79.27                   0.999502        -178.181        0.0279879         91.7721        0.0279615         91.8139         0.999567        -178.196
79.305                  0.999499        -178.206        0.0275501         91.7434        0.0275173          91.788          0.99958        -178.221
79.34                   0.999493        -178.229        0.0271616         91.7181        0.0271221         91.7647         0.999592        -178.243
79.375                  0.999485        -178.249        0.0268078         91.6953        0.0267615         91.7433         0.999603        -178.263
79.41                   0.999475        -178.268          0.02648         91.6744        0.0264265         91.7233         0.999613        -178.282
79.445                  0.999463        -178.286        0.0261723         91.6552        0.0261114         91.7044         0.999623          -178.3
79.48                   0.999448        -178.303        0.0258806         91.6373         0.025812         91.6864         0.999633        -178.317
79.515                  0.999432         -178.32        0.0256021         91.6206        0.0255253          91.669         0.999642        -178.333
79.55                   0.999414        -178.336        0.0253345          91.605        0.0252493         91.6522         0.999651        -178.348
79.585                  0.999394        -178.352        0.0250761         91.5904        0.0249823         91.6358          0.99966        -178.363
79.62                   0.999375        -178.368        0.0248258         91.5767        0.0247229         91.6199         0.999669        -178.378
79.655                  0.999357        -178.384        0.0245823         91.5638          0.02447         91.6043         0.999678        -178.392
79.69                   0.999342        -178.401        0.0243448         91.5518        0.0242228          91.589         0.999687        -178.406
79.725                  0.999332        -178.417        0.0241126         91.5406        0.0239805          91.574         0.999696        -178.419
79.76                   0.999331        -178.433        0.0238851         91.5302        0.0237425         91.5592         0.999705        -178.433
79.795                  0.999343         -178.45        0.0236617         91.5205        0.0235082         91.5446         0.999714        -178.446
79.83                    0.99937        -178.467         0.023442         91.5117        0.0232772         91.5301         0.999723        -178.459
79.865                  0.999413        -178.483        0.0232254         91.5037         0.023049         91.5159         0.999732        -178.472
79.9                     0.99947        -178.498        0.0230117         91.4966        0.0228231         91.5017         0.999741        -178.484
79.935                  0.999539        -178.513        0.0228005         91.4905        0.0225994         91.4877         0.999751        -178.497
79.97                   0.999612        -178.527        0.0225915         91.4852        0.0223773         91.4738         0.999761        -178.509
80.005                  0.999686        -178.539        0.0223845         91.4811        0.0221567         91.4599         0.999771        -178.522
80.04                   0.999754        -178.551         0.022179          91.478        0.0219371         91.4462         0.999781        -178.534
80.075                  0.999815        -178.562        0.0219749         91.4762        0.0217184         91.4325         0.999792        -178.546
80.11                   0.999867        -178.573         0.021772         91.4758        0.0215003         91.4189         0.999803        -178.558
80.145                   0.99991        -178.583          0.02157         91.4769        0.0212825         91.4053         0.999815         -178.57
80.18                   0.999946        -178.593        0.0213687         91.4797        0.0210647         91.3918         0.999827        -178.583
80.215                  0.999975        -178.604        0.0211678         91.4843        0.0208467         91.3783          0.99984        -178.595
80.25                   0.999998        -178.614        0.0209673         91.4912        0.0206282         91.3648         0.999854        -178.607
80.285                         1        -178.625        0.0207669         91.5005         0.020409         91.3514         0.999869        -178.619
80.32                          1        -178.635        0.0205663         91.5127        0.0201889         91.3379         0.999885        -178.632
80.355                         1        -178.646        0.0203654         91.5281        0.0199675         91.3245         0.999901        -178.644
80.39                          1        -178.657         0.020164         91.5473        0.0197446         91.3111         0.999919        -178.657
80.425                         1        -178.669        0.0199619          91.571          0.01952         91.2976         0.999938        -178.669
80.46                          1         -178.68        0.0197589         91.5999        0.0192934         91.2842         0.999958        -178.682
80.495                         1        -178.692        0.0195546         91.6349        0.0190644         91.2707          0.99998        -178.695
80.53                          1        -178.704         0.019349         91.6773        0.0188329         91.2572                1        -178.708
80.565                         1        -178.716        0.0191417         91.7283        0.0185984         91.2437                1        -178.722
80.6                           1        -178.729        0.0189323         91.7897        0.0183606         91.2302                1        -178.736
80.635                         1        -178.741        0.0187205         91.8637        0.0181192         91.2166                1         -178.75
80.67                          1        -178.754        0.0185058         91.9528        0.0178738         91.2029                1        -178.765
80.705                         1        -178.768        0.0182876         92.0602        0.0176241         91.1892                1         -178.78
80.74                          1        -178.781        0.0180651         92.1898        0.0173695         91.1753                1        -178.795
80.775                         1        -178.795        0.0178371         92.3463        0.0171097         91.1614                1        -178.811
80.81                          1         -178.81        0.0176021         92.5353        0.0168441         91.1474                1        -178.828
80.845                         1        -178.824        0.0173581         92.7631        0.0165722         91.1333                1        -178.845
80.88                          1         -178.84        0.0171021         93.0367        0.0162935         91.1191                1        -178.863
80.915                         1        -178.855        0.0168303         93.3628        0.0160073         91.1047                1        -178.881
80.95                          1        -178.871        0.0165374         93.7463        0.0157129         91.0902                1        -178.899
80.985                         1        -178.888         0.016217         94.1876        0.0154095         91.0755                1        -178.918
81.02                          1        -178.906        0.0158616         94.6785        0.0150965         91.0607                1        -178.938
81.055                         1        -178.923        0.0154641         95.1974        0.0147727         91.0456                1        -178.958
81.09                          1        -178.942          0.01502         95.7058        0.0144373         91.0303                1        -178.978
81.125                         1        -178.961        0.0145302         96.1497        0.0140891         91.0147                1        -178.999
81.16                          1        -178.982        0.0140027         96.4712        0.0137268         90.9989                1        -179.021
81.195                         1        -179.003         0.013452          96.626        0.0133492         90.9828                1        -179.043
81.23                          1        -179.025        0.0128944         96.6004        0.0129545         90.9665                1        -179.066
81.265                         1        -179.048        0.0123425         96.4153         0.012541         90.9499                1         -179.09
81.3                           1        -179.073        0.0118018         96.1149        0.0121067          90.933                1        -179.115
81.335                         1        -179.098        0.0112706         95.7501        0.0116493         90.9158                1        -179.142
81.37                          1        -179.126        0.0107424         95.3652        0.0111662         90.8985                1        -179.169
81.405                         1        -179.155        0.0102086         94.9917        0.0106545          90.881                1        -179.199
81.44                          1        -179.185       0.00965983         94.6494        0.0101106         90.8636                1         -179.23
81.475                         1        -179.218       0.00908692         94.3494       0.00953048         90.8466                1        -179.263
81.51                          1        -179.254       0.00848127         94.0977       0.00890948         90.8305                1        -179.299
81.545                         1        -179.292       0.00783441         93.8983       0.00824205         90.8159                1        -179.337
81.58                          1        -179.333       0.00713773         93.7568       0.00752162         90.8044                1        -179.378
81.615                         1        -179.377       0.00638197         93.6841       0.00674038         90.7983                1        -179.423
81.65                          1        -179.426       0.00555677         93.7025        0.0058889         90.8023                1        -179.471
81.685                         1        -179.479       0.00465013         93.8619       0.00495572          90.826                1        -179.525
81.72                          1        -179.538       0.00364779         94.2861        0.0039268         90.8927                1        -179.583
81.755                         1        -179.603       0.00253268         95.3667       0.00278473         91.0722                1        -179.649
81.79                          1        -179.676       0.00128615         99.2168       0.00150771         91.7052                1        -179.722
81.825                         1        -179.758      0.000232419        -140.933      7.80608e-05         121.173                1        -179.804
81.86                          1        -179.852       0.00176996        -95.2264       0.00157318        -91.4623                1        -179.898
81.895                         1         -179.96       0.00362953        -92.3704       0.00345928        -90.7658                1         179.994