! TOUCHSTONE file generated by CST MICROWAVE STUDIO
! Date and time: Fri Feb 16 17:58:35 2024
! Project name: metal_rotado.cst
! Parameters = {angX=1.75; angY=2}
! Header version: 2018
! Port assignment regex: !\s*Touchstone port\s*([0-9]+)\s*=\s*(CST MWS port|CST DS port)\s*([0-9]+|Zmin|Zmax)\s*\(\"(.*)\"\)(\s*mode\s*([0-9]+))?.*
! Touchstone port assignment:
! Touchstone port 1 = CST MWS port 1 ("")
! Touchstone port 2 = CST MWS port 2 ("")
# GHz S MA R 376.7
75                      0.998001        -176.456        0.0626026         93.5552        0.0626314          93.529         0.998024        -176.445
75.035                  0.998091        -176.504        0.0618642         93.5055        0.0618789         93.4861         0.998088        -176.493
75.07                   0.998176        -176.553        0.0611177         93.4554        0.0611191         93.4428          0.99815        -176.542
75.105                  0.998258        -176.601        0.0603616         93.4048        0.0603504         93.3988          0.99821        -176.591
75.14                   0.998336        -176.651        0.0595941         93.3537        0.0595712         93.3542         0.998268         -176.64
75.175                  0.998411          -176.7        0.0588134         93.3019        0.0587794         93.3088         0.998325         -176.69
75.21                   0.998483        -176.751        0.0580172         93.2493        0.0579729         93.2625          0.99838         -176.74
75.245                  0.998552        -176.802         0.057203         93.1958        0.0571491         93.2151         0.998435        -176.791
75.28                   0.998619        -176.854        0.0563677         93.1411         0.056305         93.1665         0.998488        -176.844
75.315                  0.998684        -176.908        0.0555081         93.0851        0.0554372         93.1164         0.998541        -176.897
75.35                   0.998747        -176.962          0.05462         93.0275        0.0545416         93.0647         0.998594        -176.952
75.385                  0.998808        -177.019        0.0536985         92.9681        0.0536135         93.0111         0.998646        -177.009
75.42                   0.998868        -177.078        0.0527381         92.9066         0.052647         92.9552         0.998699        -177.067
75.455                  0.998927        -177.139        0.0517317         92.8425        0.0516353         92.8966         0.998752        -177.128
75.49                   0.998985        -177.203         0.050671         92.7753          0.05057         92.8349         0.998807        -177.192
75.525                  0.999043         -177.27        0.0495454         92.7044        0.0494406         92.7694         0.998862         -177.26
75.56                   0.999102        -177.342        0.0483419         92.6292        0.0482341         92.6994         0.998919        -177.332
75.595                  0.999161         -177.42        0.0470439         92.5486        0.0469339         92.6239         0.998979        -177.409
75.63                   0.999222        -177.503        0.0456302         92.4614        0.0455188         92.5418         0.999041        -177.493
75.665                  0.999286        -177.595        0.0440727         92.3659        0.0439608         92.4514         0.999107        -177.585
75.7                    0.999352        -177.697         0.042334         92.2601        0.0422226         92.3506         0.999178        -177.687
75.735                  0.999423        -177.812        0.0403628         92.1408        0.0402527         92.2364         0.999255        -177.802
75.77                   0.999499        -177.945        0.0380864         92.0038         0.037979         92.1046         0.999338        -177.934
75.805                  0.999582          -178.1        0.0353995          91.843         0.035296         91.9494         0.999431         -178.09
75.84                   0.999673        -178.288        0.0321419         91.6488        0.0320438         91.7614         0.999534        -178.279
75.875                  0.999774        -178.524        0.0280582         91.4057        0.0279674         91.5263          0.99965        -178.514
75.91                   0.999883         -178.83        0.0227152         91.0868        0.0226342         91.2196         0.999777        -178.822
75.945                  0.999991        -179.254        0.0153129         90.6369        0.0152453          90.797         0.999909        -179.247
75.98                    1.00006         -179.89       0.00419376           89.82       0.00414615         90.1864          1.00001        -179.884
76.015                  0.999897         179.031        0.0147242        -90.9565        0.0147363        -90.9483         0.999894         179.034
76.05                   0.998397         176.741        0.0548963        -93.3149        0.0548167         -93.241         0.998484         176.739
76.085                  0.979472         168.402          0.20028        -101.745         0.199606         -101.61         0.979899          168.39
76.12                    0.80289        -143.548          0.59619         126.455         0.599691          126.71         0.800232        -143.273
76.155                  0.981102        -168.902         0.195677         101.106         0.196002         101.181         0.980703        -168.845
76.19                    0.99138        -172.538         0.132934         97.4552         0.133094         97.5219         0.991157          -172.5
76.225                   0.99434        -173.987         0.107764         96.0018          0.10791         96.0609         0.994193        -173.956
76.26                   0.995666        -174.775        0.0940598         95.2148        0.0942274         95.2635         0.995569        -174.747
76.295                  0.996399        -175.277        0.0853379         94.7181        0.0855446         94.7528         0.996343         -175.25
76.33                   0.996857         -175.63        0.0792264         94.3752        0.0794852         94.3913         0.996838        -175.603
76.365                  0.997166        -175.894        0.0746536         94.1247        0.0749767         94.1169         0.997181        -175.868
76.4                    0.997388        -176.104        0.0710675         93.9355        0.0714665         93.8977         0.997435        -176.078
76.435                  0.997554        -176.276        0.0681597         93.7899        0.0686439         93.7158         0.997631         -176.25
76.47                   0.997686        -176.423        0.0657539         93.6761        0.0663263         93.5607         0.997787        -176.396
76.505                  0.997797        -176.552        0.0637619          93.582        0.0644077         93.4261         0.997915        -176.524
76.54                     0.9979        -176.671        0.0621788         93.4866        0.0628422         93.3082         0.998019        -176.641
76.575                  0.998008        -176.789        0.0611315         93.3483        0.0616645          93.203         0.998098        -176.756
76.61                   0.998133        -176.924        0.0611325         93.0957        0.0611533         93.0995          0.99813        -176.885
76.645                   0.99832        -177.218        0.0663067         92.4882        0.0636836         92.9296         0.997926         -177.15
76.68                   0.998934        -176.399        0.0466509         93.7439        0.0465344         93.6775         0.998905         -176.25
76.715                  0.998619        -176.841        0.0525448         93.1847        0.0525635         93.1917         0.998617        -176.789
76.75                   0.998597        -176.963        0.0529011         93.0925        0.0526735         93.0997         0.998524        -176.913
76.785                  0.998595         -177.05         0.052383         93.0239        0.0521296         93.0285         0.998478        -176.998
76.82                   0.998624        -177.126        0.0515683         92.9448         0.051375         92.9515         0.998505        -177.076
76.855                  0.998675        -177.197        0.0506352         92.8604         0.050516         92.8665         0.998593        -177.153
76.89                   0.998738        -177.265        0.0496519         92.7765        0.0495922         92.7783         0.998698        -177.229
76.925                  0.998803        -177.331        0.0486452         92.6958        0.0486244         92.6921         0.998791        -177.303
76.96                   0.998865        -177.396        0.0476246          92.619        0.0476246         92.6111         0.998866        -177.374
76.995                  0.998923        -177.461        0.0465916         92.5457        0.0465997          92.536         0.998927        -177.443
77.03                   0.998976        -177.526        0.0455432         92.4753        0.0455517          92.466         0.998978        -177.511
77.065                  0.999025        -177.592        0.0444747         92.4071        0.0444789         92.3996         0.999025        -177.578
77.1                    0.999071        -177.659        0.0433792           92.34         0.043377         92.3351         0.999069        -177.646
77.135                  0.999116        -177.728        0.0422487         92.2734        0.0422392          92.271         0.999113        -177.716
77.17                   0.999159        -177.799        0.0410733         92.2061        0.0410567         92.2057         0.999157        -177.787
77.205                  0.999202        -177.873        0.0398416         92.1371        0.0398182         92.1378         0.999202        -177.861
77.24                   0.999247        -177.951        0.0385393         92.0652        0.0385101         92.0659         0.999249        -177.938
77.275                  0.999293        -178.034        0.0371491         91.9889        0.0371153         91.9884         0.999298        -178.021
77.31                   0.999343        -178.123        0.0356494          91.906        0.0356124         91.9035          0.99935         -178.11
77.345                  0.999397        -178.221        0.0340124         91.8142        0.0339742         91.8089         0.999406        -178.207
77.38                   0.999457        -178.328        0.0322018         91.7099        0.0321653         91.7018         0.999466        -178.314
77.415                  0.999524        -178.449        0.0301692         91.5884        0.0301385         91.5783         0.999531        -178.434
77.45                   0.999599        -178.586        0.0278485         91.4427        0.0278293         91.4332         0.999603        -178.572
77.485                  0.999684        -178.745        0.0251461         91.2621        0.0251469         91.2591         0.999682        -178.732
77.52                   0.999781        -178.933        0.0219258         91.0286        0.0219583          91.045          0.99977        -178.924
77.555                  0.999891        -179.164        0.0179807         90.7059        0.0180612          90.773         0.999869         -179.16
77.59                    1.00001        -179.455        0.0129802         90.1971        0.0131305          90.408         0.999982        -179.463
77.625                   1.00014        -179.839       0.00636147         88.9695        0.0066086         89.8221          1.00011        -179.878
77.66                    1.00024         179.624       0.00293213          -86.33       0.00254685        -89.5524          1.00021         179.451
77.695                   1.00022         178.809         0.017063         -90.148        0.0165231        -91.1396         0.996645         179.287
77.73                   0.999667         177.404         0.041504        -91.9734        0.0407999          -92.65         0.998542         177.578
77.765                  0.996195         174.347         0.094676        -95.2857        0.0938947        -95.7446         0.995115         174.466
77.8                    0.954886          162.49         0.297262         -107.48         0.297275        -107.664         0.953937         162.511
77.835                  0.813111         -144.62         0.581898         125.391         0.581933         125.364         0.813376        -144.625
77.87                   0.979156        -167.841         0.214335         101.588         0.214329         102.154         0.976798        -167.831
77.905                  0.991438        -171.902         0.144664         97.4621         0.143959         98.0835         0.989589         -171.94
77.94                   0.994349        -173.585         0.115398         96.0512         0.114708         96.3994         0.993396        -173.635
77.975                  0.995442        -174.529         0.098981          95.338        0.0985761         95.4515         0.995129        -174.566
78.01                   0.996073        -175.139        0.0884366         94.8575        0.0882499         94.8248         0.996114        -175.157
78.045                  0.996528        -175.568        0.0810686         94.4943        0.0809978         94.3734         0.996775        -175.568
78.08                   0.996886        -175.888        0.0756011         94.2047        0.0755751         94.0336         0.997312        -175.872
78.115                  0.997181        -176.137        0.0713566         93.9655        0.0713343         93.7717         0.997863        -176.111
78.15                   0.997432        -176.337         0.067944         93.7625        0.0679044         93.5663         0.998349        -176.321
78.185                  0.997652        -176.502        0.0651222         93.5863        0.0650562         93.4031         0.998392        -176.502
78.22                   0.997846        -176.642         0.062735         93.4305          0.06264         93.2715         0.998303        -176.643
78.255                  0.998022        -176.762        0.0606767         93.2905        0.0605534         93.1641         0.998288        -176.758
78.29                    0.99818        -176.866         0.058873         93.1629        0.0587238         93.0756         0.998319        -176.858
78.325                  0.998324        -176.959        0.0572705         93.0452        0.0570985         93.0019         0.998368        -176.948
78.36                   0.998455        -177.041        0.0558298         92.9354         0.055638         92.9403         0.998422        -177.029
78.395                  0.998573        -177.116        0.0545209         92.8321        0.0543124         92.8885         0.998476        -177.102
78.43                   0.998679        -177.184        0.0533207         92.7338        0.0530984         92.8452         0.998528         -177.17
78.465                  0.998775        -177.246        0.0522113         92.6397        0.0519778         92.8091         0.998577        -177.233
78.5                     0.99886        -177.304        0.0511782         92.5486        0.0509361         92.7795         0.998623        -177.291
78.535                  0.998935        -177.358          0.05021         92.4599        0.0499614         92.7557         0.998667        -177.346
78.57                   0.999001        -177.409        0.0492973         92.3728        0.0490442         92.7375         0.998708        -177.398
78.605                  0.999059        -177.457        0.0484321         92.2865        0.0481766         92.7247         0.998747        -177.447
78.64                   0.999109        -177.502        0.0476081         92.2004         0.047352         92.7172         0.998784        -177.494
78.675                  0.999153        -177.545        0.0468199         92.1138        0.0465649          92.715          0.99882        -177.539
78.71                   0.999191        -177.587        0.0460627         92.0259        0.0458108         92.7184         0.998853        -177.582
78.745                  0.999224        -177.627        0.0453327         91.9359        0.0450858         92.7277         0.998885        -177.623
78.78                   0.999253        -177.666        0.0446264         91.8429        0.0443864         92.7432         0.998916        -177.664
78.815                  0.999278        -177.703        0.0439409         91.7459          0.04371         92.7656         0.998945        -177.703
78.85                   0.999299         -177.74        0.0432737         91.6436        0.0430542         92.7956         0.998974        -177.741
78.885                  0.999318        -177.776        0.0426225         91.5346        0.0424172          92.834         0.999001        -177.778
78.92                   0.999334        -177.811        0.0419855          91.417        0.0417973         92.8819         0.999028        -177.814
78.955                  0.999349        -177.845        0.0413612         91.2888        0.0411934         92.9404         0.999054        -177.849
78.99                   0.999362        -177.879        0.0407484         91.1471        0.0406049         93.0109         0.999079        -177.884
79.025                  0.999373        -177.912        0.0401464         90.9883        0.0400316         93.0951         0.999103        -177.918
79.06                   0.999383        -177.945        0.0395552         90.8082        0.0394739         93.1944         0.999127        -177.952
79.095                  0.999393        -177.978        0.0389757          90.601        0.0389327         93.3107         0.999151        -177.985
79.13                   0.999401         -178.01        0.0384102         90.3597          0.03841         93.4452         0.999173        -178.018
79.165                  0.999409        -178.042        0.0378635          90.076        0.0379087         93.5985         0.999196        -178.051
79.2                    0.999417        -178.074        0.0373442         89.7407        0.0374328         93.7697         0.999218        -178.083
79.235                  0.999424        -178.106        0.0368664         89.3463        0.0369877         93.9551         0.999239        -178.116
79.27                   0.999431        -178.137         0.036453         88.8937        0.0365793         94.1462         0.999261        -178.148
79.305                  0.999438        -178.169        0.0361353         88.4057        0.0362131         94.3278         0.999281        -178.179
79.34                   0.999444          -178.2        0.0359469         87.9498        0.0358922         94.4764         0.999302        -178.211
79.375                   0.99945        -178.232         0.035897         87.6563        0.0356133         94.5601         0.999322        -178.243
79.41                   0.999457        -178.263        0.0359277         87.6815        0.0353629         94.5449         0.999343        -178.275
79.445                  0.999463        -178.295        0.0359046         88.0901        0.0351163          94.405         0.999362        -178.306
79.48                   0.999469        -178.326        0.0356972          88.765        0.0348413          94.136         0.999382        -178.338
79.515                  0.999476        -178.358        0.0352738         89.4951        0.0345086         93.7612         0.999401         -178.37
79.55                   0.999482         -178.39        0.0346909         90.1268        0.0341014         93.3239         0.999421        -178.402
79.585                  0.999489        -178.422        0.0340232         90.6085        0.0336193         92.8721          0.99944        -178.434
79.62                   0.999495        -178.454        0.0333239         90.9509        0.0330741         92.4433         0.999459        -178.467
79.655                  0.999502        -178.487        0.0326209         91.1844        0.0324828         92.0597         0.999477        -178.499
79.69                   0.999509         -178.52        0.0319261         91.3388        0.0318611         91.7293         0.999496        -178.532
79.725                  0.999516        -178.553        0.0312428         91.4374        0.0312214         91.4509         0.999514        -178.565
79.76                   0.999524        -178.586        0.0305705         91.4968        0.0305721         91.2186         0.999533        -178.599
79.795                  0.999531         -178.62         0.029907         91.5286        0.0299179         91.0252         0.999551        -178.632
79.83                   0.999539        -178.655        0.0292497         91.5409        0.0292614         90.8633         0.999569        -178.667
79.865                  0.999547        -178.689        0.0285962         91.5391        0.0286035         90.7265         0.999587        -178.701
79.9                    0.999555        -178.724         0.027944         91.5271         0.027944         90.6094         0.999605        -178.736
79.935                  0.999563         -178.76         0.027291         91.5074        0.0272823         90.5076         0.999623        -178.772
79.97                   0.999572        -178.797        0.0266353         91.4821        0.0266172         90.4177          0.99964        -178.808
80.005                  0.999581        -178.833         0.025975         91.4523        0.0259477          90.337         0.999658        -178.845
80.04                    0.99959        -178.871        0.0253085         91.4192        0.0252723         90.2632         0.999676        -178.882
80.075                  0.999599        -178.909        0.0246343         91.3833        0.0245898         90.1945         0.999693         -178.92
80.11                   0.999609        -178.948        0.0239508         91.3452        0.0238986         90.1297          0.99971        -178.959
80.145                  0.999618        -178.988        0.0232566         91.3052        0.0231975         90.0677         0.999727        -178.999
80.18                   0.999629        -179.029        0.0225503         91.2636        0.0224849         90.0073         0.999745        -179.039
80.215                  0.999639        -179.071        0.0218304         91.2206        0.0217595          89.948         0.999762        -179.081
80.25                    0.99965        -179.113        0.0210955         91.1762        0.0210198         89.8891         0.999778        -179.123
80.285                  0.999661        -179.157        0.0203441         91.1307        0.0202642         89.8299         0.999795        -179.167
80.32                   0.999672        -179.202        0.0195746          91.084        0.0194912         89.7699         0.999812        -179.212
80.355                  0.999683        -179.248        0.0187854         91.0361        0.0186991         89.7086         0.999828        -179.257
80.39                   0.999695        -179.296        0.0179748         90.9872        0.0178862         89.6456         0.999844        -179.305
80.425                  0.999707        -179.344        0.0171409         90.9371        0.0170507         89.5803          0.99986        -179.353
80.46                    0.99972        -179.395        0.0162819         90.8858        0.0161905         89.5121         0.999876        -179.403
80.495                  0.999732        -179.447        0.0153956         90.8334        0.0153036         89.4406         0.999891        -179.455
80.53                   0.999746        -179.501        0.0144798         90.7798        0.0143878         89.3649         0.999906        -179.508
80.565                  0.999759        -179.556         0.013532          90.725        0.0134406         89.2843         0.999921        -179.563
80.6                    0.999773        -179.614        0.0125495          90.669        0.0124594         89.1979         0.999935        -179.621
80.635                  0.999787        -179.674        0.0115295         90.6118        0.0114413         89.1045         0.999948         -179.68
80.67                   0.999802        -179.736        0.0104686         90.5534        0.0103832         89.0027         0.999961        -179.742
80.705                  0.999818        -179.801       0.00936345         90.4938       0.00928174          88.891         0.999972        -179.806
80.74                   0.999835        -179.869       0.00820999          90.433       0.00813316         88.7676         0.999983        -179.873
80.775                  0.999853        -179.939       0.00700386         90.3706       0.00693343          88.632         0.999992        -179.943
80.81                   0.999874         179.987       0.00574008         90.3053       0.00567824         88.4881                1         179.984
80.845                  0.999899         179.909       0.00441293         90.2312       0.00436309         88.3614                1         179.908
80.88                   0.999934         179.827       0.00301555         90.1196       0.00298387         88.3928          1.00001         179.829
80.915                  0.999995          179.74       0.00153855         89.7463       0.00153934         89.7385         0.999999         179.747
80.95                    1.00017         179.648      5.42939e-05        -46.1426      0.000210356         168.185         0.999973         179.667
80.985                  0.999955          179.72       0.00478778        -90.0969       0.00482479        -90.7693         0.999964         179.744
81.02                   0.999577         179.462       0.00332435        -92.2798       0.00366246        -83.5703          1.00015          179.42
81.055                  0.999712          179.35       0.00520542        -91.3046       0.00539725         -87.629          1.00008         179.327
81.09                   0.999757         179.233        0.0071969        -91.1143       0.00733995        -89.0702          1.00005         179.217
81.125                  0.999775         179.109       0.00932567        -91.1007       0.00944155        -89.8269          1.00002         179.096
81.16                   0.999779         178.976        0.0116121        -91.1579        0.0117086        -90.3213         0.999996         178.964
81.195                  0.999772         178.832        0.0140782        -91.2543        0.0141586         -90.694         0.999961         178.823
81.23                   0.999755         178.677        0.0167495        -91.3782        0.0168154        -91.0049         0.999916         178.669
81.265                  0.999727         178.508        0.0196564        -91.5251        0.0197085         -91.284         0.999858         178.501
81.3                    0.999684         178.324        0.0228358        -91.6939        0.0228742        -91.5491         0.999785         178.318
81.335                  0.999625         178.121         0.026333        -91.8851        0.0263576        -91.8118         0.999691         178.116
81.37                   0.999544         177.896        0.0302046        -92.1008        0.0302152        -92.0809          0.99957         177.893
81.405                  0.999434         177.645        0.0345225        -92.3445        0.0345188        -92.3643         0.999415         177.644
81.44                   0.999286         177.363        0.0393801         -92.621         0.039362        -92.6698         0.999215         177.363
81.475                  0.999083         177.043        0.0449021        -92.9372        0.0448696        -93.0063         0.998957         177.044
81.51                   0.998806         176.673        0.0512603        -93.3028         0.051214         -93.385         0.998622         176.676
81.545                  0.998418         176.241        0.0587024        -93.7319         0.058644         -93.821         0.998184         176.245
81.58                   0.997864         175.724        0.0676065        -94.2463        0.0675395        -94.3368         0.997601         175.728
81.615                  0.997049         175.086        0.0785976        -94.8824        0.0785294         -94.969         0.996793          175.09
81.65                   0.995789          174.26        0.0928344        -95.7075        0.0927809        -95.7854         0.995584         174.263
81.685                  0.993655         173.099         0.112869        -96.8704         0.112868        -96.9351         0.993544         173.099
81.72                   0.989232         171.166          0.14619        -98.8094         0.146351        -98.8578         0.989214         171.158
81.755                   0.97266         166.129         0.232258        -103.859         0.233125        -103.905         0.972472         166.095
81.79                   0.805359        -143.937         0.592949         125.921         0.593396         125.951         0.805061        -144.165
81.825                  0.999039         178.241         0.023654        -91.2135        0.0222393        -91.5257                1         178.246
81.86                   0.994228         173.834         0.100407        -96.0703        0.0993256        -95.9913         0.995385         173.814
81.895                  0.987277         170.711         0.154412        -99.2337         0.153634        -99.0756         0.988558         170.671