! TOUCHSTONE file generated by CST MICROWAVE STUDIO
! Date and time: Wed Feb 14 15:11:44 2024
! Project name: metal_rotado.cst
! Parameters = {angY=1.5}
! Header version: 2018
! Port assignment regex: !\s*Touchstone port\s*([0-9]+)\s*=\s*(CST MWS port|CST DS port)\s*([0-9]+|Zmin|Zmax)\s*\(\"(.*)\"\)(\s*mode\s*([0-9]+))?.*
! Touchstone port assignment:
! Touchstone port 1 = CST MWS port 1 ("")
! Touchstone port 2 = CST MWS port 2 ("")
# GHz S MA R 376.7
75                             1         156.106                0               0                0               0                1        -156.097
75.035                         1         155.755      4.77771e-65        -179.998      4.77771e-65        -179.998                1        -156.431
75.07                          1         155.405      4.77771e-65        -179.997      4.77771e-65        -179.997                1        -156.764
75.105                   1.00001         155.054      4.77772e-65        -179.995      4.77772e-65        -179.995                1        -157.097
75.14                    1.00001         154.703      4.77772e-65        -179.994      4.77772e-65        -179.994         0.999999        -157.429
75.175                   1.00001         154.352      4.77773e-65        -179.992      4.77773e-65        -179.992         0.999999        -157.762
75.21                    1.00001         154.001      4.77773e-65         -179.99      4.77773e-65         -179.99         0.999999        -158.094
75.245                   1.00001         153.651      4.77774e-65        -179.989      4.77774e-65        -179.989         0.999999        -158.426
75.28                    1.00001           153.3      4.77775e-65        -179.987      4.77775e-65        -179.987         0.999999        -158.757
75.315                   1.00001         152.949      4.77775e-65        -179.986      4.77775e-65        -179.986         0.999999        -159.089
75.35                    1.00001         152.598      4.77776e-65        -179.984      4.77776e-65        -179.984         0.999999         -159.42
75.385                   1.00001         152.248      4.77777e-65        -179.983      4.77777e-65        -179.983         0.999999        -159.751
75.42                    1.00001         151.897      4.67825e-65        -179.981      4.67825e-65        -179.981         0.999999        -160.082
75.455                   1.00001         151.546      4.67826e-65        -179.979      4.67826e-65        -179.979         0.999999        -160.413
75.49                    1.00001         151.196      4.67827e-65        -179.978      4.67827e-65        -179.978         0.999999        -160.744
75.525                   1.00001         150.845      4.67828e-65        -179.976      4.67828e-65        -179.976         0.999999        -161.075
75.56                    1.00001         150.494       4.6783e-65        -179.975       4.6783e-65        -179.975         0.999999        -161.405
75.595                   1.00001         150.143      4.67831e-65        -179.973      4.67831e-65        -179.973         0.999999        -161.735
75.63                    1.00001         149.793      4.67833e-65        -179.971      4.67833e-65        -179.971         0.999999        -162.066
75.665                   1.00001         149.442      4.67834e-65         -179.97      4.67834e-65         -179.97         0.999999        -162.396
75.7                     1.00001         149.091      4.67836e-65        -179.968      4.67836e-65        -179.968         0.999999        -162.726
75.735                   1.00001         148.741      4.67838e-65        -179.967      4.67838e-65        -179.967                1        -163.055
75.77                          1          148.39       4.6784e-65        -179.965       4.6784e-65        -179.965                1        -163.385
75.805                         1         148.039      4.67841e-65        -179.964      4.67841e-65        -179.964                1        -163.715
75.84                   0.999999         147.689      4.67843e-65        -179.962      4.67843e-65        -179.962                1        -164.044
75.875                  0.999997         147.338      4.67846e-65         -179.96      4.67846e-65         -179.96                1        -164.374
75.91                   0.999993         146.988      4.67848e-65        -179.959      4.67848e-65        -179.959                1        -164.703
75.945                  0.999989         146.637       4.6785e-65        -179.957       4.6785e-65        -179.957                1        -165.032
75.98                   0.999985         146.287      4.67852e-65        -179.956      4.67852e-65        -179.956                1        -165.361
76.015                  0.999979         145.936      4.67855e-65        -179.954      4.67855e-65        -179.954                1         -165.69
76.05                   0.999973         145.586      4.57903e-65        -179.953      4.57903e-65        -179.953                1        -166.019
76.085                  0.999966         145.235      4.57905e-65        -179.951      4.57905e-65        -179.951                1        -166.348
76.12                   0.999957         144.885      4.57908e-65         -179.95      4.57908e-65         -179.95                1        -166.676
76.155                  0.999946         144.534       4.5791e-65        -179.948       4.5791e-65        -179.948                1        -167.003
76.19                   0.999934         144.184      4.57913e-65        -179.947      4.57913e-65        -179.947                1         -167.33
76.225                  0.999918         143.834      4.57916e-65        -179.945      4.57916e-65        -179.945                1        -167.654
76.26                   0.999898         143.483      4.57919e-65        -179.943      4.57919e-65        -179.943                1        -167.971
76.295                  0.999872         143.133      4.57922e-65        -179.942      4.57922e-65        -179.942                1        -168.205
76.33                   0.999838         142.783      4.57924e-65         -179.94      4.57924e-65         -179.94                1        -168.711
76.365                  0.999792         142.433      4.57927e-65        -179.939      4.57927e-65        -179.939                1        -169.009
76.4                    0.999728         142.083      4.57931e-65        -179.937      4.57931e-65        -179.937                1         -169.33
76.435                  0.999635         141.732      4.57934e-65        -179.936      4.57934e-65        -179.936                1        -169.655
76.47                   0.999505         141.378      4.47982e-65        -179.934      4.47982e-65        -179.934                1        -169.982
76.505                   0.99935         141.019      4.47986e-65        -179.933      4.47986e-65        -179.933                1         -170.31
76.54                   0.999279         140.652      4.47989e-65        -179.931      4.47989e-65        -179.931                1        -170.638
76.575                  0.999457         140.284      4.47993e-65         -179.93      4.47993e-65         -179.93                1        -170.967
76.61                   0.999746         139.929      4.47996e-65        -179.928      4.47996e-65        -179.928                1        -171.296
76.645                   0.99994         139.582      4.47999e-65        -179.927      4.47999e-65        -179.927                1        -171.625
76.68                    1.00004         139.237      4.48003e-65        -179.925      4.48003e-65        -179.925                1        -171.954
76.715                   1.00008         138.891      4.48006e-65        -179.924      4.48006e-65        -179.924                1        -172.284
76.75                     1.0001         138.543       4.4801e-65        -179.922       4.4801e-65        -179.922                1        -172.614
76.785                   1.00011         138.195      4.48014e-65        -179.921      4.48014e-65        -179.921                1        -172.944
76.82                    1.00011         137.846      4.48018e-65        -179.919      4.48018e-65        -179.919                1        -173.275
76.855                   1.00011         137.497      4.38066e-65        -179.917      4.38066e-65        -179.917                1        -173.608
76.89                    1.00011         137.147       4.3807e-65        -179.916       4.3807e-65        -179.916                1        -173.942
76.925                    1.0001         136.797      4.38074e-65        -179.914      4.38074e-65        -179.914                1        -174.279
76.96                    1.00009         136.447      4.38078e-65        -179.913      4.38078e-65        -179.913                1        -174.623
76.995                   1.00007         136.097      4.38082e-65        -179.911      4.38082e-65        -179.911                1        -174.985
77.03                   0.999997          135.76                0               0                0               0                1        -175.452
77.065                   1.00015         135.395      4.28134e-65         -179.91      4.28134e-65         -179.91                1        -175.104
77.1                     1.00012         135.044      4.28138e-65        -179.908      4.28138e-65        -179.908                1        -175.765
77.135                    1.0001         134.694      4.28142e-65        -179.906      4.28142e-65        -179.906                1        -176.141
77.17                    1.00009         134.343      4.28147e-65        -179.904      4.28147e-65        -179.904                1        -176.489
77.205                   1.00008         133.992      4.28151e-65        -179.903      4.28151e-65        -179.903                1        -176.827
77.24                    1.00007         133.641      4.28156e-65        -179.901      4.28156e-65        -179.901                1        -177.162
77.275                   1.00007          133.29       4.2816e-65          -179.9       4.2816e-65          -179.9                1        -177.495
77.31                    1.00006         132.939      4.18208e-65        -179.899      4.18208e-65        -179.899                1        -177.826
77.345                   1.00005         132.588      4.18212e-65        -179.897      4.18212e-65        -179.897                1        -178.156
77.38                    1.00004         132.237      4.18217e-65        -179.896      4.18217e-65        -179.896                1        -178.486
77.415                   1.00003         131.885      4.18222e-65        -179.894      4.18222e-65        -179.894                1        -178.815
77.45                    1.00001         131.534      4.18226e-65        -179.893      4.18226e-65        -179.893                1        -179.144
77.485                         1         131.182      4.18231e-65        -179.891      4.18231e-65        -179.891                1        -179.472
77.52                   0.999993          130.83      4.18236e-65         -179.89      4.18236e-65         -179.89                1        -179.799
77.555                  0.999984         130.478      4.18241e-65        -179.889      4.18241e-65        -179.889                1         179.876
77.59                   0.999976         130.126      4.18246e-65        -179.887      4.18246e-65        -179.887                1         179.555
77.625                  0.999969         129.774      4.18251e-65        -179.886      4.18251e-65        -179.886                1         179.267
77.66                   0.999966         129.422      4.18257e-65        -179.884      4.18257e-65        -179.884                1         178.808
77.695                  0.999964         129.069      4.18262e-65        -179.883      4.18262e-65        -179.883                1         178.526
77.73                   0.999966         128.717      4.08308e-65        -179.881      4.08308e-65        -179.881                1         178.206
77.765                  0.999969         128.365      4.08314e-65         -179.88      4.08314e-65         -179.88                1         177.881
77.8                    0.999975         128.012      4.08319e-65        -179.879      4.08319e-65        -179.879                1         177.554
77.835                  0.999982          127.66      4.08324e-65        -179.877      4.08324e-65        -179.877                1         177.227
77.87                    0.99999         127.308       4.0833e-65        -179.876       4.0833e-65        -179.876                1         176.899
77.905                  0.999999         126.955      4.08335e-65        -179.874      4.08335e-65        -179.874                1         176.571
77.94                    1.00001         126.603       4.0834e-65        -179.873       4.0834e-65        -179.873                1         176.243
77.975                   1.00002         126.251      4.08346e-65        -179.872      4.08346e-65        -179.872                1         175.915
78.01                    1.00002         125.899      4.08352e-65         -179.87      4.08352e-65         -179.87                1         175.587
78.045                   1.00003         125.547      4.08357e-65        -179.869      4.08357e-65        -179.869                1         175.259
78.08                    1.00004         125.195      4.08363e-65        -179.868      4.08363e-65        -179.868                1         174.931
78.115                   1.00005         124.843      4.08369e-65        -179.866      4.08369e-65        -179.866                1         174.602
78.15                    1.00005         124.491      3.98414e-65        -179.865      3.98414e-65        -179.865                1         174.274
78.185                   1.00006         124.139       3.9842e-65        -179.864       3.9842e-65        -179.864                1         173.946
78.22                    1.00006         123.787      3.98426e-65        -179.862      3.98426e-65        -179.862                1         173.617
78.255                   1.00007         123.434      3.98432e-65        -179.861      3.98432e-65        -179.861                1         173.289
78.29                    1.00007         123.082      3.98438e-65         -179.86      3.98438e-65         -179.86                1          172.96
78.325                   1.00008          122.73                0               0                0               0                1         172.632
78.36                    1.00008         122.378       3.9845e-65        -179.857       3.9845e-65        -179.857                1         172.304
78.395                   1.00008         122.025      3.98456e-65        -179.856      3.98456e-65        -179.856                1         171.975
78.43                    1.00009         121.673      3.98462e-65        -179.854      3.98462e-65        -179.854                1         171.647
78.465                   1.00009         121.321      3.98468e-65        -179.853      3.98468e-65        -179.853                1         171.318
78.5                     1.00009         120.968      3.98474e-65        -179.852      3.98474e-65        -179.852                1          170.99
78.535                   1.00009         120.616      3.98481e-65        -179.851      3.98481e-65        -179.851                1         170.662
78.57                    1.00009         120.263      3.98487e-65        -179.849      3.98487e-65        -179.849                1         170.333
78.605                   1.00009         119.911      3.98494e-65        -179.848      3.98494e-65        -179.848                1         170.005
78.64                    1.00009         119.558        3.985e-65        -179.847        3.985e-65        -179.847                1         169.676
78.675                   1.00009         119.205      3.88544e-65        -179.845      3.88544e-65        -179.845                1         169.348
78.71                    1.00008         118.853       3.8855e-65        -179.844       3.8855e-65        -179.844                1         169.019
78.745                   1.00008           118.5      3.88557e-65        -179.843      3.88557e-65        -179.843                1         168.691
78.78                    1.00008         118.147      3.88563e-65        -179.842      3.88563e-65        -179.842                1         168.362
78.815                   1.00007         117.794       3.8857e-65         -179.84       3.8857e-65         -179.84                1         168.034
78.85                    1.00007         117.441      3.88576e-65        -179.839      3.88576e-65        -179.839                1         167.706
78.885                   1.00006         117.087      3.88583e-65        -179.838      3.88583e-65        -179.838                1         167.377
78.92                    1.00006         116.734       3.8859e-65        -179.837       3.8859e-65        -179.837                1         167.049
78.955                   1.00005         116.381      3.88597e-65        -179.836      3.88597e-65        -179.836                1         166.721
78.99                    1.00004         116.027      3.88603e-65        -179.834      3.88603e-65        -179.834                1         166.393
79.025                   1.00003         115.673       3.8861e-65        -179.833       3.8861e-65        -179.833                1         166.065
79.06                    1.00003         115.319      3.88617e-65        -179.832      3.88617e-65        -179.832         0.999999         165.737
79.095                   1.00002         114.965      3.88624e-65        -179.831      3.88624e-65        -179.831         0.999998         165.411
79.13                    1.00001         114.611      3.88631e-65         -179.83      3.88631e-65         -179.83         0.999988         165.089
79.165                         1         114.257       3.8864e-65        -179.828       3.8864e-65        -179.828         0.999125         164.646
79.2                    0.999993         113.902       3.7868e-65        -179.827       3.7868e-65        -179.827          0.99999         164.407
79.235                  0.999986         113.547      3.78687e-65        -179.826      3.78687e-65        -179.826         0.999997         164.084
79.27                   0.999982         113.192      3.78694e-65        -179.825      3.78694e-65        -179.825         0.999999         163.757
79.305                  0.999985         112.836      3.78701e-65        -179.824      3.78701e-65        -179.824         0.999999         163.429
79.34                    1.00001         112.479      3.78708e-65        -179.823      3.78708e-65        -179.823         0.999999         163.101
79.375                    1.0001         112.121      3.78716e-65        -179.821      3.78716e-65        -179.821                1         162.773
79.41                    1.00029         111.774      3.78723e-65         -179.82      3.78723e-65         -179.82                1         162.444
79.445                   1.00015          111.43       3.7873e-65        -179.819       3.7873e-65        -179.819                1         162.116
79.48                    1.00005         111.075      3.78737e-65        -179.818      3.78737e-65        -179.818                1         161.787
79.515                   1.00001         110.718      3.68778e-65        -179.817      3.68778e-65        -179.817                1         161.459
79.55                   0.999992         110.362      3.68785e-65        -179.816      3.68785e-65        -179.816                1          161.13
79.585                  0.999983         110.007      3.68792e-65        -179.815      3.68792e-65        -179.815                1         160.801
79.62                   0.999978         109.651      3.68799e-65        -179.814      3.68799e-65        -179.814                1         160.473
79.655                  0.999976         109.296      3.68807e-65        -179.812      3.68807e-65        -179.812                1         160.144
79.69                   0.999976          108.94      3.68814e-65        -179.811      3.68814e-65        -179.811                1         159.815
79.725                  0.999977         108.585      3.68821e-65         -179.81      3.68821e-65         -179.81                1         159.486
79.76                   0.999979         108.229      3.68829e-65        -179.809      3.68829e-65        -179.809                1         159.158
79.795                  0.999981         107.874      3.68836e-65        -179.808      3.68836e-65        -179.808                1         158.829
79.83                   0.999984         107.519      3.68844e-65        -179.807      3.68844e-65        -179.807                1           158.5
79.865                  0.999987         107.163      3.58882e-65        -179.806      3.58882e-65        -179.806                1         158.171
79.9                     0.99999         106.808       3.5889e-65        -179.805       3.5889e-65        -179.805                1         157.842
79.935                  0.999994         106.453      3.58897e-65        -179.804      3.58897e-65        -179.804                1         157.513
79.97                   0.999997         106.097      3.58905e-65        -179.803      3.58905e-65        -179.803                1         157.185
80.005                         1         105.742      3.58912e-65        -179.802      3.58912e-65        -179.802                1         156.857
80.04                          1         105.387       3.5892e-65        -179.801       3.5892e-65        -179.801                1         156.496
80.075                   1.00001         105.031      3.58927e-65          -179.8      3.58927e-65          -179.8                1         156.196
80.11                    1.00001         104.676      3.58935e-65        -179.799      3.58935e-65        -179.799                1         155.868
80.145                   1.00001          104.32      3.58943e-65        -179.798      3.58943e-65        -179.798                1         155.539
80.18                    1.00002         103.965       3.5895e-65        -179.797       3.5895e-65        -179.797                1          155.21
80.215                   1.00002          103.61      3.48987e-65        -179.796      3.48987e-65        -179.796                1         154.881
80.25                    1.00002         103.254      3.48995e-65        -179.795      3.48995e-65        -179.795                1         154.552
80.285                   1.00002         102.898      3.49002e-65        -179.794      3.49002e-65        -179.794                1         154.223
80.32                    1.00003         102.543       3.4901e-65        -179.793       3.4901e-65        -179.793                1         153.894
80.355                   1.00003         102.187      3.49018e-65        -179.792      3.49018e-65        -179.792                1         153.565
80.39                    1.00003         101.832      3.49025e-65        -179.791      3.49025e-65        -179.791                1         153.236
80.425                   1.00003         101.476      3.49033e-65         -179.79      3.49033e-65         -179.79                1         152.907
80.46                    1.00003          101.12      3.49041e-65        -179.789      3.49041e-65        -179.789                1         152.578
80.495                   1.00004         100.764      3.49049e-65        -179.788      3.49049e-65        -179.788                1         152.249
80.53                    1.00004         100.408      3.49056e-65        -179.788      3.49056e-65        -179.788                1         151.919
80.565                   1.00004         100.052      3.49064e-65        -179.787      3.49064e-65        -179.787                1          151.59
80.6                     1.00004         99.6963      3.49072e-65        -179.786      3.49072e-65        -179.786                1         151.261
80.635                   1.00004         99.3402       3.4908e-65        -179.785       3.4908e-65        -179.785                1         150.932
80.67                    1.00005          98.984      3.49088e-65        -179.784      3.49088e-65        -179.784                1         150.603
80.705                   1.00005         98.6277      3.39122e-65        -179.783      3.39122e-65        -179.783                1         150.273
80.74                    1.00006         98.2714       3.3913e-65        -179.782       3.3913e-65        -179.782                1         149.944
80.775                   1.00007          97.915      3.39138e-65        -179.781      3.39138e-65        -179.781                1         149.615
80.81                    1.00008         97.5585      3.39145e-65        -179.781      3.39145e-65        -179.781                1         149.285
80.845                   1.00011         97.2021      3.39153e-65         -179.78      3.39153e-65         -179.78                1         148.956
80.88                    1.00015         96.8465      3.39161e-65        -179.779      3.39161e-65        -179.779                1         148.627
80.915                   1.00019         96.4937      3.39169e-65        -179.778      3.39169e-65        -179.778                1         148.297
80.95                    1.00015         96.1428      3.39177e-65        -179.777      3.39177e-65        -179.777                1         147.968
80.985                   1.00006         95.7864      3.39185e-65        -179.776      3.39185e-65        -179.776                1         147.639
81.02                    1.00002          95.428      3.39193e-65        -179.776      3.39193e-65        -179.776                1         147.309
81.055                   1.00001         95.0699      3.39201e-65        -179.775      3.39201e-65        -179.775                1          146.98
81.09                          1         94.7121      3.39209e-65        -179.774      3.39209e-65        -179.774                1          146.65
81.125                         1         94.3547      3.39217e-65        -179.773      3.39217e-65        -179.773                1         146.321
81.16                          1         93.9973      3.39226e-65        -179.773      3.39226e-65        -179.773                1         145.991
81.195                         1           93.64      3.39234e-65        -179.772      3.39234e-65        -179.772                1         145.662
81.23                          1         93.2827      3.29264e-65        -179.771      3.29264e-65        -179.771                1         145.332
81.265                         1         92.9254      3.29272e-65         -179.77      3.29272e-65         -179.77                1         145.002
81.3                           1         92.5681       3.2928e-65         -179.77       3.2928e-65         -179.77                1         144.673
81.335                         1         92.2107      3.29288e-65        -179.769      3.29288e-65        -179.769                1         144.343
81.37                          1         91.8533      3.29296e-65        -179.768      3.29296e-65        -179.768                1         144.013
81.405                         1         91.4958      3.29304e-65        -179.768      3.29304e-65        -179.768                1         143.683
81.44                          1         91.1383      3.29313e-65        -179.767      3.29313e-65        -179.767                1         143.352
81.475                         1         90.7807      3.29321e-65        -179.766      3.29321e-65        -179.766                1          143.02
81.51                          1         90.4231      3.29329e-65        -179.765      3.29329e-65        -179.765                1         142.694
81.545                         1         90.0654      3.29337e-65        -179.765      3.29337e-65        -179.765                1         142.374
81.58                   0.999999         89.7077      3.19365e-65        -179.764      3.19365e-65        -179.764                1         142.041
81.615                  0.999999         89.3501      3.19373e-65        -179.763      3.19373e-65        -179.763                1          141.71
81.65                   0.999998         88.9925      3.19381e-65        -179.763      3.19381e-65        -179.763                1          141.38
81.685                         1         88.6357      3.19389e-65        -179.762      3.19389e-65        -179.762                1         141.049
81.72                    1.00006         88.2833      3.19397e-65        -179.762      3.19397e-65        -179.762                1         140.719
81.755                   1.00006          87.911      3.19405e-65        -179.761      3.19405e-65        -179.761                1         140.389
81.79                    1.00001         87.5556      3.19413e-65         -179.76      3.19413e-65         -179.76         0.999999          140.06
81.825                   1.00001         87.1981      3.19421e-65         -179.76      3.19421e-65         -179.76         0.999999          139.73
81.86                          1           86.84       3.1943e-65        -179.759       3.1943e-65        -179.759         0.999999           139.4
81.895                         1         86.4816      3.09455e-65        -179.759      3.09455e-65        -179.759         0.999999          139.07