! TOUCHSTONE file generated by CST MICROWAVE STUDIO
! Date and time: Mon Feb  5 13:56:31 2024
! Project name: metal_rotado.cst
! Header version: 2018
! Port assignment regex: !\s*Touchstone port\s*([0-9]+)\s*=\s*(CST MWS port|CST DS port)\s*([0-9]+|Zmin|Zmax)\s*\(\"(.*)\"\)(\s*mode\s*([0-9]+))?.*
! Touchstone port assignment:
! Touchstone port 1 = CST MWS port 1 ("")
! Touchstone port 2 = CST MWS port 2 ("")
# GHz S MA R 376.7
75                      0.999995         148.079                0               0                0               0                1        -147.582
75.035                  0.999993          147.72       4.4751e-65        -179.999       4.4751e-65        -179.999         0.999996        -147.922
75.07                    0.99999         147.361       4.4751e-65        -179.997       4.4751e-65        -179.997         0.999992        -148.261
75.105                  0.999988         147.002      4.47511e-65        -179.996      4.47511e-65        -179.996          0.99999        -148.599
75.14                   0.999986         146.643      4.47511e-65        -179.994      4.47511e-65        -179.994         0.999988        -148.937
75.175                  0.999985         146.284      4.47512e-65        -179.992      4.47512e-65        -179.992         0.999987        -149.275
75.21                   0.999983         145.924      4.47513e-65         -179.99      4.47513e-65         -179.99         0.999986        -149.612
75.245                  0.999982         145.565      4.47514e-65        -179.988      4.47514e-65        -179.988         0.999986        -149.949
75.28                   0.999981         145.206       4.3757e-65        -179.986       4.3757e-65        -179.986         0.999987        -150.285
75.315                  0.999981         144.846      4.37571e-65        -179.984      4.37571e-65        -179.984         0.999988        -150.621
75.35                   0.999981         144.487      4.37572e-65        -179.982      4.37572e-65        -179.982         0.999989        -150.957
75.385                  0.999982         144.127      4.37573e-65         -179.98      4.37573e-65         -179.98         0.999991        -151.292
75.42                   0.999983         143.768      4.37574e-65        -179.978      4.37574e-65        -179.978         0.999992        -151.627
75.455                  0.999986         143.408      4.37576e-65        -179.976      4.37576e-65        -179.976         0.999994        -151.962
75.49                    0.99999         143.048      4.37577e-65        -179.974      4.37577e-65        -179.974         0.999996        -152.296
75.525                  0.999995         142.689      4.37579e-65        -179.972      4.37579e-65        -179.972         0.999999         -152.63
75.56                          1         142.329       4.3758e-65        -179.971       4.3758e-65        -179.971                1        -152.964
75.595                   1.00001         141.969      4.37582e-65        -179.969      4.37582e-65        -179.969                1        -153.298
75.63                    1.00003         141.609      4.37584e-65        -179.967      4.37584e-65        -179.967          1.00001        -153.631
75.665                   1.00004          141.25      4.37586e-65        -179.965      4.37586e-65        -179.965          1.00001        -153.964
75.7                     1.00007          140.89      4.37588e-65        -179.963      4.37588e-65        -179.963          1.00001        -154.297
75.735                   1.00009         140.531       4.3759e-65        -179.961       4.3759e-65        -179.961          1.00001        -154.629
75.77                    1.00011         140.173      4.37592e-65        -179.959      4.37592e-65        -179.959          1.00001        -154.962
75.805                   1.00013         139.815      4.37594e-65        -179.957      4.37594e-65        -179.957          1.00002        -155.294
75.84                    1.00014         139.457      4.27651e-65        -179.955      4.27651e-65        -179.955          1.00002        -155.625
75.875                   1.00014         139.099      4.27654e-65        -179.953      4.27654e-65        -179.953          1.00002        -155.957
75.91                    1.00012         138.741      4.27656e-65        -179.952      4.27656e-65        -179.952          1.00002        -156.288
75.945                    1.0001         138.382      4.27659e-65         -179.95      4.27659e-65         -179.95          1.00002        -156.619
75.98                    1.00008         138.023      4.27662e-65        -179.948      4.27662e-65        -179.948          1.00002         -156.95
76.015                   1.00006         137.663      4.27664e-65        -179.946      4.27664e-65        -179.946          1.00001         -157.28
76.05                    1.00005         137.304      4.27667e-65        -179.944      4.27667e-65        -179.944          1.00001         -157.61
76.085                   1.00003         136.943       4.2767e-65        -179.942       4.2767e-65        -179.942                1         -157.94
76.12                    1.00002         136.583      4.27673e-65         -179.94      4.27673e-65         -179.94         0.999992        -158.268
76.155                         1         136.223      4.27677e-65        -179.938      4.27677e-65        -179.938         0.999975        -158.597
76.19                   0.999993         135.862       4.2768e-65        -179.937       4.2768e-65        -179.937         0.999948        -158.924
76.225                  0.999983         135.501      4.27683e-65        -179.935      4.27683e-65        -179.935         0.999898         -159.25
76.26                   0.999974         135.141      4.27687e-65        -179.933      4.27687e-65        -179.933         0.999801        -159.573
76.295                  0.999966         134.779      4.27691e-65        -179.931      4.27691e-65        -179.931         0.999576        -159.894
76.33                   0.999957         134.418      4.27695e-65        -179.929      4.27695e-65        -179.929         0.998982        -160.219
76.365                  0.999948         134.056      4.27699e-65        -179.927      4.27699e-65        -179.927         0.998257        -160.605
76.4                    0.999937         133.694      4.17755e-65        -179.925      4.17755e-65        -179.925         0.999114        -160.981
76.435                  0.999924         133.331      4.17758e-65        -179.923      4.17758e-65        -179.923         0.999667        -161.302
76.47                   0.999904         132.966      4.17762e-65        -179.922      4.17762e-65        -179.922         0.999865        -161.621
76.505                  0.999873         132.598      4.17766e-65         -179.92      4.17766e-65         -179.92         0.999947        -161.944
76.54                   0.999805         132.224       4.1777e-65        -179.918       4.1777e-65        -179.918         0.999986        -162.268
76.575                  0.999558         131.823      4.17775e-65        -179.916      4.17775e-65        -179.916          1.00001        -162.594
76.61                    0.98765         131.476       4.1779e-65        -179.916       4.1779e-65        -179.916          1.00002        -162.921
76.645                   1.00003         131.278       4.1778e-65        -179.913       4.1778e-65        -179.913          1.00002        -163.249
76.68                    1.00005          130.87      4.17785e-65        -179.911      4.17785e-65        -179.911          1.00003        -163.577
76.715                   1.00003         130.495       4.1779e-65        -179.909       4.1779e-65        -179.909          1.00003        -163.905
76.75                    1.00002         130.126      4.07847e-65        -179.907      4.07847e-65        -179.907          1.00002        -164.233
76.785                   1.00001         129.761      4.07851e-65        -179.905      4.07851e-65        -179.905          1.00002        -164.561
76.82                          1         129.397      4.07856e-65        -179.904      4.07856e-65        -179.904          1.00001        -164.889
76.855                  0.999997         129.034                0               0                0               0                1        -165.218
76.89                   0.999993         128.672      4.07865e-65          -179.9      4.07865e-65          -179.9         0.999986        -165.546
76.925                   0.99999          128.31       4.0787e-65        -179.898       4.0787e-65        -179.898         0.999968        -165.875
76.96                   0.999988         127.948      4.07875e-65        -179.896      4.07875e-65        -179.896         0.999942        -166.204
76.995                  0.999986         127.586       4.0788e-65        -179.895       4.0788e-65        -179.895         0.999904        -166.532
77.03                   0.999984         127.224      3.97936e-65        -179.893      3.97936e-65        -179.893         0.999848        -166.861
77.065                  0.999983         126.862      3.97941e-65        -179.891      3.97941e-65        -179.891         0.999757        -167.188
77.1                    0.999983         126.501      3.97946e-65        -179.889      3.97946e-65        -179.889         0.999611        -167.512
77.135                  0.999983         126.139      3.97952e-65        -179.888      3.97952e-65        -179.888         0.999461        -167.824
77.17                   0.999983         125.777      3.97957e-65        -179.886      3.97957e-65        -179.886          0.99974        -168.127
77.205                  0.999983         125.416      3.97961e-65        -179.884      3.97961e-65        -179.884          1.00017        -168.461
77.24                   0.999984         125.054      3.97966e-65        -179.882      3.97966e-65        -179.882          1.00029        -168.801
77.275                  0.999986         124.692      3.97972e-65        -179.881      3.97972e-65        -179.881           1.0003        -169.136
77.31                   0.999987         124.331      3.97977e-65        -179.879      3.97977e-65        -179.879          1.00029        -169.468
77.345                   0.99999         123.969      3.97983e-65        -179.877      3.97983e-65        -179.877          1.00028        -169.799
77.38                   0.999992         123.607      3.97988e-65        -179.875      3.97988e-65        -179.875          1.00027        -170.129
77.415                  0.999995         123.245      3.97994e-65        -179.874      3.97994e-65        -179.874          1.00027        -170.458
77.45                   0.999997         122.884      3.97999e-65        -179.872      3.97999e-65        -179.872          1.00026        -170.786
77.485                         1         122.522      3.88055e-65         -179.87      3.88055e-65         -179.87          1.00027        -171.115
77.52                          1          122.16      3.88061e-65        -179.869      3.88061e-65        -179.869          1.00027        -171.443
77.555                         1         121.798      3.88067e-65        -179.867      3.88067e-65        -179.867          1.00028         -171.77
77.59                    1.00001         121.436      3.88072e-65        -179.865      3.88072e-65        -179.865           1.0003        -172.097
77.625                   1.00001         121.074      3.88078e-65        -179.864      3.88078e-65        -179.864          1.00032        -172.422
77.66                    1.00001         120.712      3.88084e-65        -179.862      3.88084e-65        -179.862          1.00034        -172.745
77.695                   1.00001          120.35       3.8809e-65         -179.86       3.8809e-65         -179.86          1.00029        -173.064
77.73                    1.00001         119.988      3.88097e-65        -179.859      3.88097e-65        -179.859          1.00004        -173.386
77.765                   1.00001         119.626      3.88103e-65        -179.857      3.88103e-65        -179.857         0.999806        -173.724
77.8                     1.00001         119.264       3.8811e-65        -179.855       3.8811e-65        -179.855         0.999795        -174.062
77.835                   1.00001         118.901      3.88116e-65        -179.854      3.88116e-65        -179.854         0.999843        -174.396
77.87                    1.00001         118.539      3.88122e-65        -179.852      3.88122e-65        -179.852         0.999886        -174.727
77.905                   1.00001         118.177      3.88129e-65         -179.85      3.88129e-65         -179.85         0.999917        -175.056
77.94                    1.00001         117.814      3.88135e-65        -179.849      3.88135e-65        -179.849         0.999939        -175.385
77.975                   1.00001         117.451      3.88142e-65        -179.847      3.88142e-65        -179.847         0.999955        -175.713
78.01                    1.00001         117.089      3.78196e-65        -179.845      3.78196e-65        -179.845         0.999967        -176.042
78.045                   1.00001         116.726      3.78202e-65        -179.844      3.78202e-65        -179.844         0.999976         -176.37
78.08                    1.00001         116.363      3.78209e-65        -179.842      3.78209e-65        -179.842         0.999983        -176.698
78.115                   1.00001             116      3.78216e-65        -179.841      3.78216e-65        -179.841         0.999988        -177.026
78.15                    1.00001         115.637      3.78222e-65        -179.839      3.78222e-65        -179.839         0.999992        -177.354
78.185                   1.00001         115.274      3.78229e-65        -179.837      3.78229e-65        -179.837         0.999995        -177.683
78.22                    1.00001         114.911      3.78236e-65        -179.836      3.78236e-65        -179.836         0.999997        -178.011
78.255                   1.00001         114.548      3.78243e-65        -179.834      3.78243e-65        -179.834         0.999999        -178.339
78.29                    1.00001         114.185       3.7825e-65        -179.833       3.7825e-65        -179.833                1        -178.667
78.325                   1.00001         113.821      3.78257e-65        -179.831      3.78257e-65        -179.831                1        -178.995
78.36                    1.00001         113.458      3.78264e-65         -179.83      3.78264e-65         -179.83                1        -179.323
78.395                   1.00001         113.094      3.78271e-65        -179.828      3.78271e-65        -179.828                1        -179.651
78.43                    1.00001         112.731      3.78279e-65        -179.826      3.78279e-65        -179.826                1        -179.979
78.465                   1.00001         112.367      3.78286e-65        -179.825      3.78286e-65        -179.825                1         179.692
78.5                     1.00001         112.003      3.78293e-65        -179.823      3.78293e-65        -179.823                1         179.364
78.535                   1.00001         111.639      3.78301e-65        -179.822      3.78301e-65        -179.822                1         179.036
78.57                    1.00001         111.275      3.68353e-65         -179.82      3.68353e-65         -179.82                1         178.708
78.605                   1.00001         110.911       3.6836e-65        -179.819       3.6836e-65        -179.819                1          178.38
78.64                          1         110.547      3.68367e-65        -179.817      3.68367e-65        -179.817                1         178.052
78.675                         1         110.183      3.68375e-65        -179.816      3.68375e-65        -179.816                1         177.723
78.71                          1         109.819      3.68383e-65        -179.814      3.68383e-65        -179.814                1         177.395
78.745                         1         109.454       3.6839e-65        -179.813       3.6839e-65        -179.813                1         177.067
78.78                          1          109.09      3.68398e-65        -179.811      3.68398e-65        -179.811                1         176.739
78.815                         1         108.725      3.68405e-65         -179.81      3.68405e-65         -179.81                1         176.411
78.85                   0.999999          108.36      3.68413e-65        -179.808      3.68413e-65        -179.808                1         176.082
78.885                  0.999996         107.996      3.68421e-65        -179.807      3.68421e-65        -179.807         0.999999         175.754
78.92                   0.999994         107.631      3.68429e-65        -179.806      3.68429e-65        -179.806         0.999999         175.426
78.955                   0.99999         107.266      3.68437e-65        -179.804      3.68437e-65        -179.804         0.999999         175.098
78.99                   0.999984           106.9      3.68445e-65        -179.803      3.68445e-65        -179.803         0.999999         174.769
79.025                  0.999977         106.535      3.68453e-65        -179.801      3.68453e-65        -179.801         0.999998         174.441
79.06                   0.999967         106.169      3.68461e-65          -179.8      3.68461e-65          -179.8         0.999998         174.113
79.095                  0.999951         105.804      3.68469e-65        -179.799      3.68469e-65        -179.799         0.999998         173.784
79.13                   0.999928         105.438      3.58519e-65        -179.797      3.58519e-65        -179.797         0.999998         173.456
79.165                  0.999891         105.072      3.58527e-65        -179.796      3.58527e-65        -179.796         0.999998         173.128
79.2                    0.999837         104.707      3.58535e-65        -179.794      3.58535e-65        -179.794         0.999998         172.799
79.235                  0.999774         104.345      3.58543e-65        -179.793      3.58543e-65        -179.793         0.999998         172.471
79.27                   0.999754         103.985      3.58551e-65        -179.792      3.58551e-65        -179.792         0.999999         172.142
79.305                  0.999809         103.624      3.58559e-65         -179.79      3.58559e-65         -179.79         0.999999         171.814
79.34                   0.999885          103.26      3.58567e-65        -179.789      3.58567e-65        -179.789         0.999999         171.485
79.375                  0.999939         102.894                0               0                0               0                1         171.157
79.41                   0.999972         102.527      3.58584e-65        -179.786      3.58584e-65        -179.786                1         170.828
79.445                  0.999991          102.16      3.58593e-65        -179.785      3.58593e-65        -179.785                1           170.5
79.48                          1         101.793      3.58601e-65        -179.784      3.58601e-65        -179.784                1         170.171
79.515                   1.00001         101.426       3.5861e-65        -179.782       3.5861e-65        -179.782                1         169.843
79.55                    1.00002         101.059      3.58618e-65        -179.781      3.58618e-65        -179.781          1.00001         169.514
79.585                   1.00002         100.692      3.58627e-65         -179.78      3.58627e-65         -179.78          1.00001         169.185
79.62                    1.00003         100.325      3.58636e-65        -179.778      3.58636e-65        -179.778          1.00001         168.857
79.655                   1.00003         99.9578      3.48682e-65        -179.777      3.48682e-65        -179.777          1.00002         168.528
79.69                    1.00003         99.5908      3.48691e-65        -179.776      3.48691e-65        -179.776          1.00003         168.199
79.725                   1.00003         99.2236      3.48699e-65        -179.775      3.48699e-65        -179.775          1.00004         167.871
79.76                    1.00003         98.8564      3.48708e-65        -179.773      3.48708e-65        -179.773          1.00006         167.543
79.795                   1.00004         98.4891      3.48717e-65        -179.772      3.48717e-65        -179.772          1.00007         167.215
79.83                    1.00004         98.1217      3.48725e-65        -179.771      3.48725e-65        -179.771          1.00006         166.889
79.865                   1.00004         97.7542      3.48734e-65         -179.77      3.48734e-65         -179.77          1.00003         166.561
79.9                     1.00004         97.3867      3.48743e-65        -179.769      3.48743e-65        -179.769          1.00001         166.232
79.935                   1.00004          97.019      3.48752e-65        -179.767      3.48752e-65        -179.767         0.999997         165.903
79.97                    1.00005         96.6512      3.48761e-65        -179.766      3.48761e-65        -179.766         0.999992         165.573
80.005                   1.00005         96.2833       3.4877e-65        -179.765       3.4877e-65        -179.765          0.99999         165.244
80.04                    1.00005         95.9153      3.48779e-65        -179.764      3.48779e-65        -179.764         0.999989         164.915
80.075                   1.00006         95.5472      3.48788e-65        -179.763      3.48788e-65        -179.763         0.999989         164.586
80.11                    1.00006          95.179      3.48797e-65        -179.762      3.48797e-65        -179.762          0.99999         164.257
80.145                   1.00007         94.8107      3.48806e-65         -179.76      3.48806e-65         -179.76         0.999991         163.928
80.18                    1.00007         94.4423      3.48815e-65        -179.759      3.48815e-65        -179.759         0.999992         163.599
80.215                   1.00008         94.0738      3.38858e-65        -179.758      3.38858e-65        -179.758         0.999992          163.27
80.25                    1.00009         93.7053      3.38867e-65        -179.757      3.38867e-65        -179.757         0.999993         162.941
80.285                    1.0001         93.3369      3.38876e-65        -179.756      3.38876e-65        -179.756         0.999994         162.612
80.32                    1.00011         92.9684      3.38885e-65        -179.755      3.38885e-65        -179.755         0.999995         162.283
80.355                   1.00012         92.6002      3.38894e-65        -179.754      3.38894e-65        -179.754         0.999996         161.954
80.39                    1.00013         92.2321      3.38903e-65        -179.753      3.38903e-65        -179.753         0.999998         161.625
80.425                   1.00013         91.8642      3.38913e-65        -179.752      3.38913e-65        -179.752         0.999999         161.296
80.46                    1.00012         91.4962      3.38922e-65         -179.75      3.38922e-65         -179.75                1         160.966
80.495                   1.00011         91.1279      3.38931e-65        -179.749      3.38931e-65        -179.749                1         160.637
80.53                    1.00009         90.7589       3.3894e-65        -179.748       3.3894e-65        -179.748                1         160.308
80.565                   1.00007         90.3893       3.3895e-65        -179.747       3.3895e-65        -179.747                1         159.979
80.6                     1.00005         90.0194      3.38959e-65        -179.746      3.38959e-65        -179.746                1          159.65
80.635                   1.00004         89.6491      3.38969e-65        -179.745      3.38969e-65        -179.745          1.00001          159.32
80.67                    1.00003         89.2787      3.38978e-65        -179.744      3.38978e-65        -179.744          1.00001         158.991
80.705                   1.00002         88.9081      3.38988e-65        -179.743      3.38988e-65        -179.743          1.00001         158.662
80.74                    1.00002         88.5374      3.38997e-65        -179.742      3.38997e-65        -179.742          1.00001         158.332
80.775                   1.00001         88.1666      3.29036e-65        -179.741      3.29036e-65        -179.741          1.00001         158.003
80.81                    1.00001         87.7958      3.29045e-65         -179.74      3.29045e-65         -179.74          1.00001         157.673
80.845                   1.00001         87.4248      3.29055e-65         -179.74      3.29055e-65         -179.74          1.00002         157.344
80.88                    1.00001         87.0537      3.29064e-65        -179.739      3.29064e-65        -179.739          1.00002         157.014
80.915                         1         86.6825      3.29074e-65        -179.738      3.29074e-65        -179.738          1.00002         156.684
80.95                          1         86.3112      3.29083e-65        -179.737      3.29083e-65        -179.737          1.00003         156.355
80.985                         1         85.9399      3.29093e-65        -179.736      3.29093e-65        -179.736          1.00003         156.024
81.02                   0.999999         85.5684      3.29102e-65        -179.735      3.29102e-65        -179.735          1.00004         155.694
81.055                  0.999998         85.1968      3.29112e-65        -179.734      3.29112e-65        -179.734          1.00005         155.363
81.09                   0.999997         84.8251      3.29121e-65        -179.733      3.29121e-65        -179.733          1.00006         155.032
81.125                  0.999996         84.4534      3.29131e-65        -179.732      3.29131e-65        -179.732          1.00009         154.699
81.16                   0.999995         84.0816      3.19167e-65        -179.731      3.19167e-65        -179.731          1.00018         154.363
81.195                  0.999995         83.7098      3.19176e-65        -179.731      3.19176e-65        -179.731          1.00066         154.019
81.23                   0.999996          83.338      3.19184e-65         -179.73      3.19184e-65         -179.73          1.00054         153.775
81.265                  0.999998         82.9664      3.19195e-65        -179.729      3.19195e-65        -179.729          1.00003         153.417
81.3                           1         82.5949      3.19204e-65        -179.728      3.19204e-65        -179.728         0.999995         153.078
81.335                   1.00001         82.2239      3.19214e-65        -179.727      3.19214e-65        -179.727         0.999991         152.745
81.37                    1.00003         81.8534      3.19223e-65        -179.727      3.19223e-65        -179.727         0.999992         152.413
81.405                   1.00006          81.484      3.19233e-65        -179.726      3.19233e-65        -179.726         0.999994         152.082
81.44                    1.00012         81.1161      3.09266e-65        -179.725      3.09266e-65        -179.725         0.999996         151.751
81.475                   1.00023           80.75      3.09275e-65        -179.724      3.09275e-65        -179.724         0.999997          151.42
81.51                    1.00044         80.3855      3.09284e-65        -179.723      3.09284e-65        -179.723         0.999999          151.09
81.545                   1.00075         80.0211      3.09294e-65        -179.723      3.09294e-65        -179.723                1          150.76
81.58                    1.00109         79.6566      3.09303e-65        -179.722      3.09303e-65        -179.722                1          150.43
81.615                   1.00125         79.2962      3.09312e-65        -179.721      3.09312e-65        -179.721                1           150.1
81.65                      1.001         78.9337      3.09321e-65         -179.72      3.09321e-65         -179.72                1          149.77
81.685                   1.00055          78.553      3.09331e-65         -179.72      3.09331e-65         -179.72                1          149.44
81.72                    1.00027         78.1623      2.99362e-65        -179.719      2.99362e-65        -179.719                1         149.109
81.755                   1.00014         77.7732      2.99371e-65        -179.719      2.99371e-65        -179.719                1         148.779
81.79                    1.00009         77.3879      2.99381e-65        -179.718      2.99381e-65        -179.718                1         148.449
81.825                   1.00006         77.0054       2.9939e-65        -179.717       2.9939e-65        -179.717                1         148.119
81.86                    1.00005         76.6249      2.99399e-65        -179.717      2.99399e-65        -179.717         0.999999         147.789
81.895                   1.00004         76.2455      2.99409e-65        -179.716      2.99409e-65        -179.716         0.999998         147.459