! TOUCHSTONE file generated by CST MICROWAVE STUDIO
! Date and time: Wed Feb 14 15:11:34 2024
! Project name: metal_rotado.cst
! Parameters = {angY=0.25}
! Header version: 2018
! Port assignment regex: !\s*Touchstone port\s*([0-9]+)\s*=\s*(CST MWS port|CST DS port)\s*([0-9]+|Zmin|Zmax)\s*\(\"(.*)\"\)(\s*mode\s*([0-9]+))?.*
! Touchstone port assignment:
! Touchstone port 1 = CST MWS port 1 ("")
! Touchstone port 2 = CST MWS port 2 ("")
# GHz S MA R 376.7
75                             1         176.375                0               0                0               0                1        -176.042
75.035                  0.999997         176.037      6.19334e-65            -180      6.19334e-65            -180         0.999994        -176.373
75.07                   0.999995         175.699      6.19334e-65        -179.999      6.19334e-65        -179.999          0.99999        -176.704
75.105                  0.999992         175.361      6.19334e-65        -179.999      6.19334e-65        -179.999         0.999987        -177.035
75.14                    0.99999         175.023      6.19334e-65        -179.999      6.19334e-65        -179.999         0.999985        -177.367
75.175                  0.999989         174.685      6.19334e-65        -179.998      6.19334e-65        -179.998         0.999984        -177.699
75.21                   0.999988         174.347      6.19334e-65        -179.998      6.19334e-65        -179.998         0.999984        -178.031
75.245                  0.999988         174.008      6.09345e-65        -179.998      6.09345e-65        -179.998         0.999985        -178.363
75.28                   0.999988          173.67      6.09346e-65        -179.997      6.09346e-65        -179.997         0.999986        -178.695
75.315                  0.999988         173.332      6.09346e-65        -179.997      6.09346e-65        -179.997         0.999988        -179.028
75.35                   0.999989         172.994      6.09346e-65        -179.997      6.09346e-65        -179.997          0.99999         -179.36
75.385                   0.99999         172.656      6.09346e-65        -179.996      6.09346e-65        -179.996         0.999993        -179.693
75.42                   0.999992         172.318      6.09346e-65        -179.996      6.09346e-65        -179.996         0.999995         179.974
75.455                  0.999994          171.98      6.09347e-65        -179.995      6.09347e-65        -179.995         0.999998          179.64
75.49                   0.999997         171.641                0               0                0               0                1         179.307
75.525                         1         171.303      6.09347e-65        -179.995      6.09347e-65        -179.995                1         178.973
75.56                          1         170.965      6.09348e-65        -179.994      6.09348e-65        -179.994                1         178.639
75.595                   1.00001         170.626      6.09348e-65        -179.994      6.09348e-65        -179.994                1         178.305
75.63                    1.00001         170.288      6.09348e-65        -179.994      6.09348e-65        -179.994                1         177.971
75.665                   1.00002         169.949      6.09349e-65        -179.993      6.09349e-65        -179.993                1         177.637
75.7                     1.00002         169.611      6.09349e-65        -179.993      6.09349e-65        -179.993                1         177.303
75.735                   1.00003         169.272       6.0935e-65        -179.993       6.0935e-65        -179.993                1         176.968
75.77                    1.00004         168.933      5.99361e-65        -179.992      5.99361e-65        -179.992                1         176.633
75.805                   1.00004         168.594      5.99361e-65        -179.992      5.99361e-65        -179.992                1         176.298
75.84                    1.00005         168.255      5.99362e-65        -179.992      5.99362e-65        -179.992                1         175.963
75.875                   1.00005         167.915      5.99362e-65        -179.991      5.99362e-65        -179.991                1         175.628
75.91                    1.00005         167.575      5.99363e-65        -179.991      5.99363e-65        -179.991                1         175.293
75.945                   1.00005         167.234      5.99363e-65         -179.99      5.99363e-65         -179.99                1         174.958
75.98                    1.00003         166.892                0               0                0               0                1         174.622
76.015                  0.999978          166.55      5.99365e-65         -179.99      5.99365e-65         -179.99         0.999998         174.287
76.05                    0.99988         166.209      5.99365e-65        -179.989      5.99365e-65        -179.989         0.999997         173.951
76.085                  0.999729          165.87      5.99366e-65        -179.989      5.99366e-65        -179.989         0.999996         173.616
76.12                    0.99959         165.538      5.99367e-65        -179.989      5.99367e-65        -179.989         0.999994          173.28
76.155                  0.999554         165.209      5.99367e-65        -179.988      5.99367e-65        -179.988         0.999994         172.945
76.19                   0.999606         164.878      5.99368e-65        -179.988      5.99368e-65        -179.988         0.999993         172.609
76.225                  0.999683         164.543      5.99369e-65        -179.988      5.99369e-65        -179.988         0.999993         172.273
76.26                   0.999754         164.206       5.8938e-65        -179.987       5.8938e-65        -179.987         0.999993         171.938
76.295                  0.999812         163.868      5.89381e-65        -179.987      5.89381e-65        -179.987         0.999994         171.602
76.33                    0.99986         163.529      5.89382e-65        -179.987      5.89382e-65        -179.987         0.999995         171.266
76.365                  0.999899          163.19      5.89383e-65        -179.986      5.89383e-65        -179.986         0.999996         170.931
76.4                    0.999933          162.85      5.89383e-65        -179.986      5.89383e-65        -179.986         0.999997         170.595
76.435                  0.999962          162.51      5.89384e-65        -179.986      5.89384e-65        -179.986         0.999999          170.26
76.47                   0.999989          162.17                0               0                0               0                1         169.925
76.505                   1.00001          161.83      5.89386e-65        -179.985      5.89386e-65        -179.985                1         169.589
76.54                    1.00004         161.489      5.89387e-65        -179.984      5.89387e-65        -179.984                1         169.254
76.575                   1.00006         161.148      5.89388e-65        -179.984      5.89388e-65        -179.984                1         168.919
76.61                    1.00008         160.807      5.89389e-65        -179.984      5.89389e-65        -179.984                1         168.583
76.645                    1.0001         160.465       5.8939e-65        -179.983       5.8939e-65        -179.983                1         168.248
76.68                    1.00011         160.122      5.89391e-65        -179.983      5.89391e-65        -179.983                1         167.913
76.715                   1.00013         159.779      5.79402e-65        -179.983      5.79402e-65        -179.983                1         167.578
76.75                    1.00014         159.434      5.79403e-65        -179.982      5.79403e-65        -179.982                1         167.242
76.785                   1.00015         159.088      5.79404e-65        -179.982      5.79404e-65        -179.982                1         166.907
76.82                    1.00016          158.74      5.79405e-65        -179.982      5.79405e-65        -179.982                1         166.571
76.855                   1.00015         158.388      5.79407e-65        -179.981      5.79407e-65        -179.981                1         166.235
76.89                    1.00012         158.028      5.79408e-65        -179.981      5.79408e-65        -179.981                1         165.897
76.925                   1.00004         157.638      5.79409e-65        -179.981      5.79409e-65        -179.981                1         165.558
76.96                    0.99998         156.132      5.69423e-65         -179.98      5.69423e-65         -179.98                1         165.207
76.995                   1.00024         157.143      5.69421e-65         -179.98      5.69421e-65         -179.98                1         164.925
77.03                   0.999997         156.749                0               0                0               0                1         164.562
77.065                    0.9998         156.416      5.59434e-65        -179.979      5.59434e-65        -179.979         0.999998         164.215
77.1                    0.999991         156.196      5.49445e-65        -179.979      5.49445e-65        -179.979                1         163.864
77.135                   1.00818         156.771      5.49442e-65        -179.979      5.49442e-65        -179.979                1          163.49
77.17                    1.00237         133.707                0               0                0               0                1         163.249
77.205                   1.00604         156.663      5.29464e-65        -179.978      5.29464e-65        -179.978                1         162.589
77.24                    1.00187         155.117      5.19478e-65        -179.978      5.19478e-65        -179.978                1         162.877
77.275                  0.999986         154.558                0               0                0               0                1         162.365
77.31                   0.999087         154.158      5.19482e-65        -179.977      5.19482e-65        -179.977         0.999982         161.991
77.345                  0.998687         153.801      5.19484e-65        -179.977      5.19484e-65        -179.977         0.999975          161.64
77.38                   0.998544         153.456      5.19485e-65        -179.976      5.19485e-65        -179.976         0.999972         161.297
77.415                  0.998527         153.115      5.19486e-65        -179.976      5.19486e-65        -179.976          0.99997         160.957
77.45                   0.998569         152.774      5.19488e-65        -179.976      5.19488e-65        -179.976         0.999969          160.62
77.485                  0.998635         152.433      5.19489e-65        -179.975      5.19489e-65        -179.975         0.999969         160.284
77.52                    0.99871          152.09        5.095e-65        -179.975        5.095e-65        -179.975          0.99997         159.949
77.555                  0.998791         151.745      5.09501e-65        -179.975      5.09501e-65        -179.975         0.999972         159.614
77.59                    0.99888         151.398      5.09503e-65        -179.974      5.09503e-65        -179.974         0.999975          159.28
77.625                  0.998989         151.049      5.09504e-65        -179.974      5.09504e-65        -179.974         0.999979         158.946
77.66                   0.999146         150.697      5.09505e-65        -179.974      5.09505e-65        -179.974         0.999984         158.613
77.695                  0.999413         150.339      5.09507e-65        -179.973      5.09507e-65        -179.973         0.999991         158.279
77.73                   0.999932         149.979      5.09508e-65        -179.973      5.09508e-65        -179.973         0.999999         157.947
77.765                   1.00092         149.631      5.09509e-65        -179.973      5.09509e-65        -179.973                1         157.614
77.8                     1.00211         149.333       5.0951e-65        -179.972       5.0951e-65        -179.972                1         157.281
77.835                   1.00233         149.075      5.09511e-65        -179.972      5.09511e-65        -179.972                1         156.949
77.87                     1.0017         148.784      5.09513e-65        -179.972      5.09513e-65        -179.972                1         156.617
77.905                    1.0011         148.459      5.09515e-65        -179.971      5.09515e-65        -179.971                1         156.285
77.94                     1.0007         148.121      4.99526e-65        -179.971      4.99526e-65        -179.971                1         155.954
77.975                   1.00043          147.78      4.99527e-65        -179.971      4.99527e-65        -179.971                1         155.623
78.01                    1.00026         147.437      4.99529e-65         -179.97      4.99529e-65         -179.97                1         155.292
78.045                   1.00014         147.095       4.9953e-65         -179.97       4.9953e-65         -179.97                1         154.961
78.08                    1.00006         146.753      4.99532e-65         -179.97      4.99532e-65         -179.97                1         154.629
78.115                  0.999996         146.411      4.99533e-65         -179.97      4.99533e-65         -179.97                1         154.294
78.15                   0.999945         146.069      4.99535e-65        -179.969      4.99535e-65        -179.969          0.99978         153.942
78.185                  0.999903         145.727                0               0                0               0                1         153.472
78.22                   0.999874         145.384      4.89547e-65        -179.969      4.89547e-65        -179.969                1         153.439
78.255                  0.999894         145.039      4.79558e-65        -179.968      4.79558e-65        -179.968                1           153.2
78.29                    1.00004         144.697      4.79559e-65        -179.968      4.79559e-65        -179.968         0.999418         152.876
78.325                   1.00014         144.366      4.79561e-65        -179.968      4.79561e-65        -179.968         0.997691         152.473
78.36                     1.0001         144.032      4.79563e-65        -179.967      4.79563e-65        -179.967         0.997383         152.055
78.395                   1.00006         143.695      4.79565e-65        -179.967      4.79565e-65        -179.967         0.997715         151.672
78.43                    1.00002         143.357      4.79567e-65        -179.967      4.79567e-65        -179.967         0.998111         151.314
78.465                         1         143.019      4.79568e-65        -179.966      4.79568e-65        -179.966         0.998442          150.97
78.5                    0.999987          142.68       4.7957e-65        -179.966       4.7957e-65        -179.966         0.998705         150.631
78.535                  0.999976         142.342      4.79571e-65        -179.966      4.79571e-65        -179.966         0.998919         150.295
78.57                   0.999967         142.003      4.69582e-65        -179.966      4.69582e-65        -179.966         0.999101         149.961
78.605                  0.999961         141.665      4.69584e-65        -179.965      4.69584e-65        -179.965          0.99926         149.627
78.64                   0.999956         141.326      4.69585e-65        -179.965      4.69585e-65        -179.965         0.999406         149.294
78.675                  0.999953         140.988      4.69587e-65        -179.965      4.69587e-65        -179.965         0.999543          148.96
78.71                    0.99995         140.649      4.69589e-65        -179.964      4.69589e-65        -179.964         0.999673         148.626
78.745                  0.999948         140.311       4.6959e-65        -179.964       4.6959e-65        -179.964         0.999795         148.291
78.78                   0.999946         139.973      4.69592e-65        -179.964      4.69592e-65        -179.964         0.999909         147.956
78.815                  0.999944         139.635      4.69594e-65        -179.963      4.69594e-65        -179.963                1          147.62
78.85                   0.999942         139.296      4.69595e-65        -179.963      4.69595e-65        -179.963                1         147.282
78.885                  0.999941         138.958      4.69597e-65        -179.963      4.69597e-65        -179.963                1         146.945
78.92                   0.999939          138.62      4.69599e-65        -179.963      4.69599e-65        -179.963                1         146.607
78.955                  0.999937         138.282      4.69601e-65        -179.962      4.69601e-65        -179.962                1         146.269
78.99                   0.999935         137.944      4.69603e-65        -179.962      4.69603e-65        -179.962                1         145.932
79.025                  0.999933         137.606      4.69605e-65        -179.962      4.69605e-65        -179.962                1         145.595
79.06                   0.999931         137.267      4.69606e-65        -179.961      4.69606e-65        -179.961                1         145.258
79.095                  0.999928         136.929      4.69608e-65        -179.961      4.69608e-65        -179.961                1         144.923
79.13                   0.999925         136.591      4.59618e-65        -179.961      4.59618e-65        -179.961                1         144.588
79.165                  0.999922         136.253       4.5962e-65        -179.961       4.5962e-65        -179.961                1         144.253
79.2                    0.999919         135.915      4.59622e-65         -179.96      4.59622e-65         -179.96                1         143.919
79.235                  0.999916         135.576      4.59624e-65         -179.96      4.59624e-65         -179.96                1         143.586
79.27                   0.999914         135.238      4.59626e-65         -179.96      4.59626e-65         -179.96                1         143.252
79.305                  0.999912         134.899      4.59628e-65         -179.96      4.59628e-65         -179.96                1         142.919
79.34                   0.999912         134.561       4.5963e-65        -179.959       4.5963e-65        -179.959                1         142.586
79.375                  0.999914         134.222                0               0                0               0                1         142.254
79.41                   0.999918         133.884      4.59634e-65        -179.959      4.59634e-65        -179.959         0.999988         141.921
79.445                  0.999923         133.545      4.59636e-65        -179.958      4.59636e-65        -179.958         0.999978         141.588
79.48                    0.99993         133.207      4.59638e-65        -179.958      4.59638e-65        -179.958          0.99997         141.256
79.515                  0.999939         132.868      4.59639e-65        -179.958      4.59639e-65        -179.958         0.999965         140.923
79.55                   0.999947          132.53      4.59641e-65        -179.958      4.59641e-65        -179.958         0.999961         140.591
79.585                  0.999956         132.192      4.59643e-65        -179.957      4.59643e-65        -179.957          0.99996         140.258
79.62                   0.999964         131.854      4.59645e-65        -179.957      4.59645e-65        -179.957         0.999959         139.926
79.655                  0.999971         131.516      4.49655e-65        -179.957      4.49655e-65        -179.957          0.99996         139.593
79.69                   0.999978         131.178      4.49657e-65        -179.957      4.49657e-65        -179.957         0.999963         139.261
79.725                  0.999983          130.84      4.49659e-65        -179.956      4.49659e-65        -179.956         0.999966         138.928
79.76                   0.999989         130.502      4.49661e-65        -179.956      4.49661e-65        -179.956         0.999971         138.596
79.795                  0.999993         130.164      4.49663e-65        -179.956      4.49663e-65        -179.956         0.999977         138.263
79.83                   0.999997         129.826      4.49665e-65        -179.956      4.49665e-65        -179.956         0.999984          137.93
79.865                         1         129.488      4.49667e-65        -179.955      4.49667e-65        -179.955         0.999991         137.598
79.9                           1          129.15      4.49669e-65        -179.955      4.49669e-65        -179.955                1         137.265
79.935                   1.00001         128.811      4.49671e-65        -179.955      4.49671e-65        -179.955                1         136.932
79.97                    1.00001         128.473      4.49673e-65        -179.955      4.49673e-65        -179.955                1         136.599
80.005                   1.00001         128.135      4.49676e-65        -179.954      4.49676e-65        -179.954                1         136.267
80.04                    1.00001         127.797      4.49678e-65        -179.954      4.49678e-65        -179.954                1         135.934
80.075                   1.00001         127.459       4.4968e-65        -179.954       4.4968e-65        -179.954                1           135.6
80.11                    1.00001         127.121      4.49682e-65        -179.954      4.49682e-65        -179.954                1         135.267
80.145                   1.00001         126.783      4.49684e-65        -179.953      4.49684e-65        -179.953                1         134.934
80.18                    1.00002         126.444      4.49686e-65        -179.953      4.49686e-65        -179.953                1           134.6
80.215                   1.00002         126.106      4.39695e-65        -179.953      4.39695e-65        -179.953                1         134.267
80.25                    1.00002         125.768      4.39697e-65        -179.953      4.39697e-65        -179.953                1         133.932
80.285                   1.00002         125.429        4.397e-65        -179.953        4.397e-65        -179.953                1         133.598
80.32                    1.00002         125.091      4.39702e-65        -179.952      4.39702e-65        -179.952                1         133.263
80.355                   1.00002         124.753      4.39704e-65        -179.952      4.39704e-65        -179.952                1         132.927
80.39                    1.00002         124.414      4.39706e-65        -179.952      4.39706e-65        -179.952                1          132.59
80.425                   1.00002         124.076      4.39708e-65        -179.952      4.39708e-65        -179.952                1         132.252
80.46                    1.00002         123.737       4.3971e-65        -179.951       4.3971e-65        -179.951                1         131.913
80.495                   1.00002         123.398      4.39713e-65        -179.951      4.39713e-65        -179.951         0.999865         131.577
80.53                    1.00002          123.06      4.39715e-65        -179.951      4.39715e-65        -179.951         0.999644         131.247
80.565                   1.00002         122.721      4.39717e-65        -179.951      4.39717e-65        -179.951         0.999489         130.924
80.6                     1.00002         122.382      4.39719e-65        -179.951      4.39719e-65        -179.951         0.999469         130.603
80.635                   1.00002         122.043      4.39721e-65         -179.95      4.39721e-65         -179.95         0.999531         130.279
80.67                    1.00002         121.704      4.39724e-65         -179.95      4.39724e-65         -179.95         0.999614         129.951
80.705                   1.00002         121.365      4.39726e-65         -179.95      4.39726e-65         -179.95         0.999691         129.621
80.74                    1.00002         121.026      4.39728e-65         -179.95      4.39728e-65         -179.95         0.999756         129.289
80.775                   1.00002         120.687      4.29737e-65        -179.949      4.29737e-65        -179.949          0.99981         128.957
80.81                    1.00002         120.348      4.29739e-65        -179.949      4.29739e-65        -179.949         0.999854         128.624
80.845                   1.00002         120.008      4.29741e-65        -179.949      4.29741e-65        -179.949         0.999891         128.291
80.88                    1.00001         119.669      4.29743e-65        -179.949      4.29743e-65        -179.949         0.999922         127.957
80.915                   1.00001         119.329      4.29745e-65        -179.949      4.29745e-65        -179.949         0.999948         127.624
80.95                    1.00001         118.989      4.29748e-65        -179.948      4.29748e-65        -179.948         0.999969          127.29
80.985                   1.00001         118.648       4.2975e-65        -179.948       4.2975e-65        -179.948         0.999987         126.956
81.02                    1.00002         118.315      4.29752e-65        -179.948      4.29752e-65        -179.948                1         126.622
81.055                   1.00002         117.971      4.29755e-65        -179.948      4.29755e-65        -179.948                1         126.288
81.09                    1.00001          117.63      4.29757e-65        -179.948      4.29757e-65        -179.948                1         125.953
81.125                   1.00001         117.289      4.29759e-65        -179.947      4.29759e-65        -179.947                1         125.618
81.16                    1.00001         116.948      4.19767e-65        -179.947      4.19767e-65        -179.947                1         125.282
81.195                   1.00001         116.607      4.19769e-65        -179.947      4.19769e-65        -179.947                1         124.946
81.23                    1.00001         116.265      4.19772e-65        -179.947      4.19772e-65        -179.947                1         124.609
81.265                   1.00001         115.923      4.19774e-65        -179.947      4.19774e-65        -179.947                1         124.272
81.3                     1.00001         115.581      4.19776e-65        -179.947      4.19776e-65        -179.947                1         123.933
81.335                   1.00001         115.238      4.19779e-65        -179.946      4.19779e-65        -179.946         0.999985         123.593
81.37                          1         114.895      4.19781e-65        -179.946      4.19781e-65        -179.946         0.999969         123.252
81.405                         1         114.551      4.19783e-65        -179.946      4.19783e-65        -179.946         0.999953         122.909
81.44                          1         114.206      4.09791e-65        -179.946      4.09791e-65        -179.946         0.999941         122.565
81.475                         1         113.861      4.09793e-65        -179.946      4.09793e-65        -179.946         0.999937         122.218
81.51                   0.999998         113.514      4.09796e-65        -179.945      4.09796e-65        -179.945         0.999947          121.87
81.545                  0.999996         113.166      4.09798e-65        -179.945      4.09798e-65        -179.945         0.999977         121.519
81.58                   0.999994         112.816        4.098e-65        -179.945        4.098e-65        -179.945                1         121.168
81.615                  0.999992         112.464      4.09803e-65        -179.945      4.09803e-65        -179.945                1         120.816
81.65                   0.999989         112.109      4.09805e-65        -179.945      4.09805e-65        -179.945                1         120.465
81.685                  0.999985         111.751      4.09808e-65        -179.945      4.09808e-65        -179.945                1         120.115
81.72                   0.999981         111.388       4.0981e-65        -179.944       4.0981e-65        -179.944                1         119.768
81.755                  0.999975         111.018      4.09813e-65        -179.944      4.09813e-65        -179.944                1         119.425
81.79                   0.999967         110.639      4.09815e-65        -179.944      4.09815e-65        -179.944                1         119.085
81.825                  0.999956         110.244      4.09818e-65        -179.944      4.09818e-65        -179.944                1         118.748
81.86                   0.999939         109.824      3.99825e-65        -179.944      3.99825e-65        -179.944                1         118.414
81.895                  0.999909         109.358      3.99827e-65        -179.944      3.99827e-65        -179.944                1         118.083