! TOUCHSTONE file generated by CST MICROWAVE STUDIO
! Date and time: Fri Feb  2 21:34:41 2024
! Project name: metal_prueba.cst
! Header version: 2018
! Port assignment regex: !\s*Touchstone port\s*([0-9]+)\s*=\s*(CST MWS port|CST DS port)\s*([0-9]+|Zmin|Zmax)\s*\(\"(.*)\"\)(\s*mode\s*([0-9]+))?.*
! Touchstone port assignment:
! Touchstone port 1 = CST MWS port 1 ("")
! Touchstone port 2 = CST MWS port 2 ("")
# GHz S MA R 376.7
75                      0.999661         179.345                0               0                0               0         0.999673         179.354
75.035                  0.999816         179.012      3.89916e-65            -180      3.89916e-65            -180         0.999855         179.019
75.07                   0.999887         178.677      3.89916e-65            -180      3.89916e-65            -180         0.999919         178.682
75.105                  0.999926         178.341      3.89916e-65            -180      3.89916e-65            -180         0.999949         178.345
75.14                    0.99995         178.005      3.89916e-65            -180      3.89916e-65            -180         0.999966         178.009
75.175                  0.999966         177.669      3.89916e-65            -180      3.89916e-65            -180         0.999977         177.672
75.21                   0.999977         177.333      3.89916e-65        -179.999      3.89916e-65        -179.999         0.999984         177.336
75.245                  0.999984         176.997      3.79919e-65        -179.999      3.79919e-65        -179.999         0.999989             177
75.28                    0.99999         176.661      3.79919e-65        -179.999      3.79919e-65        -179.999         0.999993         176.664
75.315                  0.999994         176.325      3.79919e-65        -179.999      3.79919e-65        -179.999         0.999995         176.328
75.35                   0.999998         175.989      3.79919e-65        -179.999      3.79919e-65        -179.999         0.999997         175.992
75.385                         1         175.653      3.79919e-65        -179.999      3.79919e-65        -179.999         0.999999         175.656
75.42                          1         175.317      3.79919e-65        -179.999      3.79919e-65        -179.999                1          175.32
75.455                         1         174.981      3.79919e-65        -179.999      3.79919e-65        -179.999                1         174.984
75.49                          1         174.645      3.79919e-65        -179.999      3.79919e-65        -179.999                1         174.648
75.525                         1         174.309      3.79919e-65        -179.999      3.79919e-65        -179.999                1         174.312
75.56                          1         173.973      3.79919e-65        -179.999      3.79919e-65        -179.999                1         173.976
75.595                         1         173.637      3.79919e-65        -179.999      3.79919e-65        -179.999                1          173.64
75.63                          1         173.301      3.79919e-65        -179.999      3.79919e-65        -179.999                1         173.304
75.665                         1         172.965      3.79919e-65        -179.998      3.79919e-65        -179.998                1         172.968
75.7                           1         172.629      3.69921e-65        -179.998      3.69921e-65        -179.998                1         172.632
75.735                         1         172.293      3.69921e-65        -179.998      3.69921e-65        -179.998                1         172.296
75.77                          1         171.957      3.69921e-65        -179.998      3.69921e-65        -179.998                1          171.96
75.805                         1         171.621      3.69922e-65        -179.998      3.69922e-65        -179.998                1         171.624
75.84                          1         171.285      3.69922e-65        -179.998      3.69922e-65        -179.998                1         171.288
75.875                         1         170.949      3.69922e-65        -179.998      3.69922e-65        -179.998                1         170.952
75.91                          1         170.613      3.69922e-65        -179.998      3.69922e-65        -179.998                1         170.616
75.945                         1         170.277      3.69922e-65        -179.998      3.69922e-65        -179.998                1          170.28
75.98                          1         169.941      3.69922e-65        -179.998      3.69922e-65        -179.998                1         169.944
76.015                         1         169.605      3.69922e-65        -179.998      3.69922e-65        -179.998                1         169.609
76.05                          1         169.269      3.69922e-65        -179.998      3.69922e-65        -179.998                1         169.273
76.085                         1         168.933      3.69922e-65        -179.998      3.69922e-65        -179.998                1         168.937
76.12                          1         168.597      3.59924e-65        -179.998      3.59924e-65        -179.998                1         168.601
76.155                         1         168.261      3.59924e-65        -179.998      3.59924e-65        -179.998                1         168.265
76.19                          1         167.926      3.59925e-65        -179.997      3.59925e-65        -179.997                1         167.929
76.225                         1          167.59      3.59925e-65        -179.997      3.59925e-65        -179.997                1         167.593
76.26                          1         167.254      3.59925e-65        -179.997      3.59925e-65        -179.997                1         167.257
76.295                         1         166.918      3.59925e-65        -179.997      3.59925e-65        -179.997                1         166.921
76.33                          1         166.582      3.59925e-65        -179.997      3.59925e-65        -179.997                1         166.585
76.365                         1         166.246      3.59925e-65        -179.997      3.59925e-65        -179.997                1         166.249
76.4                           1          165.91      3.59925e-65        -179.997      3.59925e-65        -179.997                1         165.913
76.435                         1         165.574      3.59925e-65        -179.997      3.59925e-65        -179.997                1         165.577
76.47                   0.999999         165.238      3.59925e-65        -179.997      3.59925e-65        -179.997                1         165.241
76.505                  0.999999         164.902      3.59925e-65        -179.997      3.59925e-65        -179.997                1         164.905
76.54                   0.999999         164.566      3.59926e-65        -179.997      3.59926e-65        -179.997                1          164.57
76.575                  0.999999          164.23      3.49928e-65        -179.997      3.49928e-65        -179.997                1         164.234
76.61                   0.999999         163.894      3.49928e-65        -179.997      3.49928e-65        -179.997                1         163.899
76.645                  0.999999         163.558      3.49928e-65        -179.997      3.49928e-65        -179.997         0.999996         163.563
76.68                   0.999999         163.222      3.49928e-65        -179.996      3.49928e-65        -179.996         0.999989         163.227
76.715                  0.999998         162.886      3.49928e-65        -179.996      3.49928e-65        -179.996         0.999987         162.891
76.75                   0.999998          162.55      3.49928e-65        -179.996      3.49928e-65        -179.996         0.999986         162.555
76.785                  0.999997         162.215                0               0                0               0         0.999986         162.218
76.82                   0.999995         161.879      3.49929e-65        -179.996      3.49929e-65        -179.996         0.999986         161.882
76.855                  0.999994         161.542      3.49929e-65        -179.996      3.49929e-65        -179.996         0.999987         161.546
76.89                   0.999995         161.206      3.49929e-65        -179.996      3.49929e-65        -179.996         0.999987          161.21
76.925                  0.999995         160.871      3.49929e-65        -179.996      3.49929e-65        -179.996         0.999987         160.874
76.96                   0.999996         160.535      3.49929e-65        -179.996      3.49929e-65        -179.996         0.999987         160.538
76.995                  0.999997         160.199      3.49929e-65        -179.996      3.49929e-65        -179.996         0.999988         160.203
77.03                   0.999997         159.863      3.39932e-65        -179.996      3.39932e-65        -179.996         0.999988         159.867
77.065                  0.999997         159.527      3.39932e-65        -179.996      3.39932e-65        -179.996         0.999988         159.531
77.1                    0.999998         159.191      3.39932e-65        -179.996      3.39932e-65        -179.996         0.999988         159.195
77.135                  0.999998         158.855      3.39932e-65        -179.996      3.39932e-65        -179.996         0.999989         158.859
77.17                   0.999998         158.519      3.39932e-65        -179.996      3.39932e-65        -179.996         0.999989         158.523
77.205                  0.999998         158.183      3.39932e-65        -179.995      3.39932e-65        -179.995         0.999989         158.187
77.24                   0.999998         157.847      3.39932e-65        -179.995      3.39932e-65        -179.995          0.99999         157.851
77.275                  0.999999         157.511      3.39933e-65        -179.995      3.39933e-65        -179.995          0.99999         157.515
77.31                   0.999999         157.175      3.39933e-65        -179.995      3.39933e-65        -179.995          0.99999         157.179
77.345                  0.999999         156.839      3.39933e-65        -179.995      3.39933e-65        -179.995         0.999991         156.843
77.38                   0.999999         156.503      3.39933e-65        -179.995      3.39933e-65        -179.995         0.999991         156.507
77.415                  0.999999         156.167      3.39933e-65        -179.995      3.39933e-65        -179.995         0.999991         156.171
77.45                   0.999999         155.832      3.39933e-65        -179.995      3.39933e-65        -179.995         0.999992         155.835
77.485                  0.999999         155.496      3.29936e-65        -179.995      3.29936e-65        -179.995         0.999992         155.499
77.52                   0.999999          155.16      3.29936e-65        -179.995      3.29936e-65        -179.995         0.999992         155.163
77.555                         1         154.824      3.29936e-65        -179.995      3.29936e-65        -179.995         0.999992         154.828
77.59                          1         154.488      3.29936e-65        -179.995      3.29936e-65        -179.995         0.999992         154.492
77.625                         1         154.152      3.29936e-65        -179.995      3.29936e-65        -179.995         0.999992         154.156
77.66                          1         153.816      3.29937e-65        -179.995      3.29937e-65        -179.995         0.999992          153.82
77.695                  0.999999          153.48      3.29937e-65        -179.995      3.29937e-65        -179.995         0.999992         153.484
77.73                   0.999999         153.144      3.29937e-65        -179.994      3.29937e-65        -179.994         0.999992         153.148
77.765                  0.999999         152.808      3.29937e-65        -179.994      3.29937e-65        -179.994         0.999992         152.812
77.8                    0.999999         152.472      3.29937e-65        -179.994      3.29937e-65        -179.994         0.999991         152.476
77.835                  0.999999         152.136      3.29937e-65        -179.994      3.29937e-65        -179.994         0.999991          152.14
77.87                   0.999998           151.8      3.29938e-65        -179.994      3.29938e-65        -179.994          0.99999         151.804
77.905                  0.999998         151.465       3.1994e-65        -179.994       3.1994e-65        -179.994          0.99999         151.468
77.94                   0.999997         151.129       3.1994e-65        -179.994       3.1994e-65        -179.994         0.999989         151.133
77.975                  0.999996         150.793       3.1994e-65        -179.994       3.1994e-65        -179.994         0.999988         150.797
78.01                   0.999995         150.457       3.1994e-65        -179.994       3.1994e-65        -179.994         0.999988         150.461
78.045                  0.999995         150.121      3.19941e-65        -179.994      3.19941e-65        -179.994         0.999987         150.125
78.08                   0.999994         149.785      3.19941e-65        -179.994      3.19941e-65        -179.994         0.999986         149.789
78.115                  0.999994         149.448      3.19941e-65        -179.994      3.19941e-65        -179.994         0.999985         149.453
78.15                   0.999996         149.112      3.19941e-65        -179.994      3.19941e-65        -179.994         0.999984         149.117
78.185                         1         148.776      3.19941e-65        -179.994      3.19941e-65        -179.994         0.999983         148.781
78.22                          1          148.44      3.19942e-65        -179.994      3.19942e-65        -179.994         0.999981         148.445
78.255                         1         148.104      3.19942e-65        -179.994      3.19942e-65        -179.994          0.99998         148.109
78.29                          1         147.769      3.19942e-65        -179.993      3.19942e-65        -179.993         0.999978         147.773
78.325                         1         147.434      3.19942e-65        -179.993      3.19942e-65        -179.993         0.999976         147.437
78.36                          1         147.098      3.09944e-65        -179.993      3.09944e-65        -179.993         0.999974         147.101
78.395                         1         146.763      3.09944e-65        -179.993      3.09944e-65        -179.993         0.999971         146.765
78.43                          1         146.428      3.09945e-65        -179.993      3.09945e-65        -179.993         0.999967         146.429
78.465                         1         146.092      3.09945e-65        -179.993      3.09945e-65        -179.993         0.999963         146.094
78.5                    0.999994         145.758      3.09945e-65        -179.993      3.09945e-65        -179.993         0.999956         145.758
78.535                  0.999944         145.421      3.09945e-65        -179.993      3.09945e-65        -179.993         0.999948         145.422
78.57                    0.99995         145.082                0               0                0               0         0.999947         145.087
78.605                  0.999974         144.745      3.09946e-65        -179.993      3.09946e-65        -179.993         0.999978         144.752
78.64                   0.999988         144.409      2.99948e-65        -179.993      2.99948e-65        -179.993         0.999989         144.415
78.675                  0.999995         144.073      2.99948e-65        -179.993      2.99948e-65        -179.993          0.99999         144.078
78.71                   0.999999         143.738      2.99948e-65        -179.993      2.99948e-65        -179.993         0.999989         143.741
78.745                         1         143.402      2.99948e-65        -179.993      2.99948e-65        -179.993         0.999991         143.405
78.78                          1         143.066      2.99949e-65        -179.993      2.99949e-65        -179.993         0.999992         143.069
78.815                         1          142.73      2.99949e-65        -179.993      2.99949e-65        -179.993         0.999994         142.733
78.85                          1         142.394      2.99949e-65        -179.993      2.99949e-65        -179.993         0.999996         142.397
78.885                         1         142.058      2.99949e-65        -179.992      2.99949e-65        -179.992         0.999998         142.061
78.92                          1         141.723       2.9995e-65        -179.992       2.9995e-65        -179.992         0.999999         141.726
78.955                         1         141.387      2.89951e-65        -179.992      2.89951e-65        -179.992                1          141.39
78.99                          1         141.051      2.89952e-65        -179.992      2.89952e-65        -179.992                1         141.054
79.025                         1         140.715      2.89952e-65        -179.992      2.89952e-65        -179.992                1         140.718
79.06                          1         140.379      2.89952e-65        -179.992      2.89952e-65        -179.992                1         140.382
79.095                         1         140.043      2.89952e-65        -179.992      2.89952e-65        -179.992                1         140.046
79.13                          1         139.707      2.89953e-65        -179.992      2.89953e-65        -179.992                1          139.71
79.165                         1         139.371      2.89953e-65        -179.992      2.89953e-65        -179.992                1         139.374
79.2                           1         139.035      2.89953e-65        -179.992      2.89953e-65        -179.992                1         139.038
79.235                         1         138.699      2.89953e-65        -179.992      2.89953e-65        -179.992                1         138.702
79.27                          1         138.363      2.89954e-65        -179.992      2.89954e-65        -179.992                1         138.367
79.305                         1         138.027      2.89954e-65        -179.992      2.89954e-65        -179.992                1         138.031
79.34                          1         137.692      2.89954e-65        -179.992      2.89954e-65        -179.992                1         137.695
79.375                         1         137.356      2.89954e-65        -179.992      2.89954e-65        -179.992                1         137.359
79.41                          1          137.02      2.79956e-65        -179.992      2.79956e-65        -179.992                1         137.023
79.445                         1         136.684      2.79956e-65        -179.992      2.79956e-65        -179.992                1         136.687
79.48                          1         136.348      2.79957e-65        -179.992      2.79957e-65        -179.992                1         136.351
79.515                         1         136.012      2.79957e-65        -179.991      2.79957e-65        -179.991                1         136.015
79.55                          1         135.676      2.79957e-65        -179.991      2.79957e-65        -179.991                1         135.679
79.585                         1          135.34      2.79957e-65        -179.991      2.79957e-65        -179.991                1         135.343
79.62                          1         135.004      2.79958e-65        -179.991      2.79958e-65        -179.991                1         135.007
79.655                         1         134.668      2.79958e-65        -179.991      2.79958e-65        -179.991                1         134.671
79.69                          1         134.332      2.79958e-65        -179.991      2.79958e-65        -179.991         0.999999         134.336
79.725                         1         133.996       2.6996e-65        -179.991       2.6996e-65        -179.991         0.999999             134
79.76                          1          133.66       2.6996e-65        -179.991       2.6996e-65        -179.991         0.999999         133.664
79.795                         1         133.324       2.6996e-65        -179.991       2.6996e-65        -179.991         0.999999         133.328
79.83                          1         132.988      2.69961e-65        -179.991      2.69961e-65        -179.991         0.999999         132.992
79.865                         1         132.653                0               0                0               0         0.999999         132.656
79.9                           1         132.317      2.69961e-65        -179.991      2.69961e-65        -179.991         0.999999          132.32
79.935                         1         131.981      2.69961e-65        -179.991      2.69961e-65        -179.991         0.999999         131.984
79.97                          1         131.645      2.69962e-65        -179.991      2.69962e-65        -179.991         0.999999         131.648
80.005                         1         131.309      2.69962e-65        -179.991      2.69962e-65        -179.991         0.999999         131.312
80.04                          1         130.973      2.69962e-65        -179.991      2.69962e-65        -179.991         0.999999         130.976
80.075                         1         130.637      2.69962e-65        -179.991      2.69962e-65        -179.991         0.999999          130.64
80.11                          1         130.301      2.69963e-65        -179.991      2.69963e-65        -179.991         0.999999         130.304
80.145                         1         129.965      2.69963e-65        -179.991      2.69963e-65        -179.991         0.999999         129.968
80.18                          1         129.629      2.69963e-65        -179.991      2.69963e-65        -179.991         0.999999         129.632
80.215                         1         129.293      2.59965e-65         -179.99      2.59965e-65         -179.99         0.999999         129.296
80.25                          1         128.957      2.59965e-65         -179.99      2.59965e-65         -179.99         0.999999         128.961
80.285                         1         128.621      2.59965e-65         -179.99      2.59965e-65         -179.99         0.999999         128.625
80.32                          1         128.286      2.59965e-65         -179.99      2.59965e-65         -179.99         0.999999         128.289
80.355                         1          127.95      2.59966e-65         -179.99      2.59966e-65         -179.99         0.999999         127.953
80.39                          1         127.614      2.59966e-65         -179.99      2.59966e-65         -179.99                1         127.617
80.425                         1         127.278      2.59966e-65         -179.99      2.59966e-65         -179.99                1         127.281
80.46                          1         126.942      2.59966e-65         -179.99      2.59966e-65         -179.99                1         126.945
80.495                         1         126.606      2.59967e-65         -179.99      2.59967e-65         -179.99                1         126.609
80.53                          1          126.27      2.59967e-65         -179.99      2.59967e-65         -179.99                1         126.273
80.565                         1         125.934      2.59967e-65         -179.99      2.59967e-65         -179.99                1         125.937
80.6                           1         125.598      2.59968e-65         -179.99      2.59968e-65         -179.99                1         125.601
80.635                         1         125.262      2.59968e-65         -179.99      2.59968e-65         -179.99                1         125.265
80.67                          1         124.926      2.59968e-65         -179.99      2.59968e-65         -179.99                1         124.929
80.705                         1          124.59      2.59968e-65         -179.99      2.59968e-65         -179.99                1         124.593
80.74                          1         124.254      2.59969e-65         -179.99      2.59969e-65         -179.99                1         124.257
80.775                         1         123.918      2.59969e-65         -179.99      2.59969e-65         -179.99                1         123.921
80.81                          1         123.582      2.59969e-65         -179.99      2.59969e-65         -179.99                1         123.585
80.845                         1         123.246      2.49971e-65         -179.99      2.49971e-65         -179.99                1         123.249
80.88                          1          122.91      2.49971e-65         -179.99      2.49971e-65         -179.99                1         122.914
80.915                         1         122.574      2.49971e-65         -179.99      2.49971e-65         -179.99                1         122.578
80.95                          1         122.238      2.49971e-65         -179.99      2.49971e-65         -179.99                1         122.242
80.985                         1         121.902      2.49972e-65         -179.99      2.49972e-65         -179.99                1         121.906
81.02                   0.999991         121.566      2.49972e-65         -179.99      2.49972e-65         -179.99                1          121.57
81.055                  0.999991         121.231      2.49972e-65        -179.989      2.49972e-65        -179.989                1         121.234
81.09                   0.999999         120.895      2.49972e-65        -179.989      2.49972e-65        -179.989         0.999994         120.897
81.125                         1         120.559      2.49973e-65        -179.989      2.49973e-65        -179.989         0.999991         120.562
81.16                          1         120.223                0               0                0               0         0.999998         120.226
81.195                         1         119.887      2.49973e-65        -179.989      2.49973e-65        -179.989         0.999999          119.89
81.23                          1         119.551      2.49974e-65        -179.989      2.49974e-65        -179.989                1         119.554
81.265                         1         119.216      2.49974e-65        -179.989      2.49974e-65        -179.989                1         119.218
81.3                           1          118.88      2.49974e-65        -179.989      2.49974e-65        -179.989                1         118.882
81.335                         1         118.544      2.39975e-65        -179.989      2.39975e-65        -179.989                1         118.546
81.37                          1         118.208      2.39976e-65        -179.989      2.39976e-65        -179.989                1          118.21
81.405                         1         117.872      2.39976e-65        -179.989      2.39976e-65        -179.989                1         117.874
81.44                          1         117.536      2.39976e-65        -179.989      2.39976e-65        -179.989                1         117.538
81.475                         1           117.2      2.39976e-65        -179.989      2.39976e-65        -179.989                1         117.202
81.51                          1         116.864      2.39977e-65        -179.989      2.39977e-65        -179.989                1         116.866
81.545                         1         116.528      2.39977e-65        -179.989      2.39977e-65        -179.989                1         116.531
81.58                          1         116.192      2.39977e-65        -179.989      2.39977e-65        -179.989                1         116.195
81.615                         1         115.856      2.39978e-65        -179.989      2.39978e-65        -179.989                1         115.859
81.65                          1          115.52      2.29979e-65        -179.989      2.29979e-65        -179.989                1         115.523
81.685                         1         115.184      2.29979e-65        -179.989      2.29979e-65        -179.989                1         115.187
81.72                          1         114.848      2.29979e-65        -179.989      2.29979e-65        -179.989                1         114.851
81.755                         1         114.512       2.2998e-65        -179.989       2.2998e-65        -179.989                1         114.515
81.79                          1         114.176       2.2998e-65        -179.989       2.2998e-65        -179.989                1         114.179
81.825                         1          113.84       2.2998e-65        -179.989       2.2998e-65        -179.989                1         113.843
81.86                          1         113.504       2.2998e-65        -179.989       2.2998e-65        -179.989                1         113.507
81.895                         1         113.168      2.29981e-65        -179.989      2.29981e-65        -179.989                1         113.171