! TOUCHSTONE file generated by CST MICROWAVE STUDIO
! Date and time: Fri Feb 16 17:58:31 2024
! Project name: metal_rotado.cst
! Parameters = {angX=1; angY=2}
! Header version: 2018
! Port assignment regex: !\s*Touchstone port\s*([0-9]+)\s*=\s*(CST MWS port|CST DS port)\s*([0-9]+|Zmin|Zmax)\s*\(\"(.*)\"\)(\s*mode\s*([0-9]+))?.*
! Touchstone port assignment:
! Touchstone port 1 = CST MWS port 1 ("")
! Touchstone port 2 = CST MWS port 2 ("")
# GHz S MA R 376.7
75                      0.998528        -176.714        0.0542547         93.2833        0.0544164         93.2667         0.998518        -176.719
75.035               2.27738e-05     8.05924e-11      1.87106e-15        -138.672        0.0539006         93.2675         0.998505         -176.75
75.07                2.29623e-05    -1.37159e-09      1.04496e-15         40.4004         0.053389         93.2675         0.998495        -176.782
75.105               2.31508e-05    -1.17468e-09      3.60823e-16        -113.306        0.0528799         93.2666         0.998487        -176.813
75.14                2.33393e-05     8.22452e-09      7.06503e-16         70.7955         0.052373         93.2647         0.998482        -176.844
75.175               2.35277e-05     1.38522e-08      1.57366e-15        -131.553         0.051868          93.262         0.998479        -176.875
75.21                2.37162e-05     5.21061e-09      1.97777e-15         164.204        0.0513646         93.2584         0.998478        -176.906
75.245               2.39047e-05     6.59586e-09      8.31403e-15         2.68931        0.0508622         93.2539         0.998479        -176.937
75.28                2.40932e-05     5.49518e-09      1.15906e-15        -152.453        0.0503605         93.2485         0.998482        -176.967
75.315               2.42817e-05    -2.41289e-09      2.45265e-16        -8.77227        0.0498592         93.2423         0.998486        -176.997
75.35                2.44702e-05    -6.57214e-09      2.44169e-16         133.904        0.0493577         93.2351         0.998493        -177.028
75.385               2.46586e-05     3.19112e-09       8.8973e-16         34.7178        0.0488555          93.227         0.998501        -177.058
75.42                2.48471e-05     6.52659e-09      8.71371e-16        -77.2702        0.0483522          93.218         0.998511        -177.088
75.455               2.50356e-05    -1.20707e-09      1.02801e-15        -111.411        0.0478472         93.2081         0.998522        -177.119
75.49                2.52241e-05     -9.1278e-10      1.60214e-15         127.619        0.0473399         93.1973         0.998535        -177.149
75.525               2.54126e-05     2.53232e-10      2.93023e-16        -95.8822        0.0468296         93.1855         0.998549         -177.18
75.56                 2.5601e-05      5.0368e-09      1.06455e-15         43.6159        0.0463156         93.1727         0.998564        -177.211
75.595               2.57895e-05     1.66995e-09      8.55016e-16        -174.216        0.0457971         93.1589         0.998581        -177.242
75.63                 2.5978e-05     1.98028e-09      2.25228e-15        -70.0332        0.0452734         93.1442         0.998599        -177.273
75.665               2.61665e-05     1.74306e-08       2.0937e-15         79.6071        0.0447433         93.1283         0.998618        -177.305
75.7                  2.6355e-05     3.26166e-08       1.0631e-15         134.435         0.044206         93.1114         0.998638        -177.337
75.735               2.65435e-05     7.40366e-09      1.65626e-15        0.884691        0.0436601         93.0934         0.998659        -177.369
75.77                2.67319e-05     1.27275e-08      6.65601e-16        -85.8752        0.0431043         93.0741         0.998682        -177.402
75.805               2.69204e-05     4.80594e-10      1.82399e-15         91.8433        0.0425372         93.0536         0.998706        -177.436
75.84                2.71089e-05     3.08779e-09      6.01511e-16        -45.5272         0.041957         93.0318          0.99873        -177.471
75.875               2.72974e-05    -4.54865e-09      6.03892e-16        -44.6655        0.0413619         93.0086         0.998756        -177.506
75.91                2.74859e-05     -1.4846e-09      4.68233e-16        -106.144        0.0407494         92.9839         0.998783        -177.542
75.945               2.76743e-05     1.06988e-09      1.74185e-15         144.351        0.0401171         92.9576         0.998812         -177.58
75.98                2.78628e-05    -5.21659e-09      5.64465e-16         -63.098         0.039462         92.9296         0.998841        -177.619
76.015               2.80513e-05     1.15157e-09      1.11521e-16         161.582        0.0387805         92.8996         0.998872        -177.659
76.05                2.82398e-05    -6.56526e-09      6.21597e-16         27.7256        0.0380683         92.8676         0.998905        -177.702
76.085               2.84283e-05    -5.67401e-10        1.334e-15        -92.3055        0.0373206         92.8332         0.998939        -177.746
76.12                2.86167e-05    -3.10781e-09       1.6761e-15        -133.416        0.0365314         92.7963         0.998974        -177.793
76.155               2.88052e-05     2.85783e-09      9.86679e-16        -145.491        0.0356933         92.7564         0.999011        -177.842
76.19                2.89937e-05     1.66402e-10      2.77808e-16         137.086        0.0347974         92.7132         0.999051        -177.895
76.225               2.91822e-05     2.53242e-10      1.22264e-15         131.595        0.0338327         92.6663         0.999093        -177.952
76.26                2.93707e-05     -2.0837e-09      1.06381e-15        -26.3737        0.0327853         92.6149         0.999137        -178.014
76.295               2.95592e-05    -5.26623e-09      7.33544e-16         100.066        0.0316375         92.5584         0.999184        -178.082
76.33                2.97476e-05     1.51899e-09      6.21824e-16         35.8101        0.0303662         92.4957         0.999234        -178.158
76.365               2.99361e-05     3.45545e-09      1.85879e-15        -129.659         0.028941         92.4258         0.999289        -178.242
76.4                 3.01246e-05    -7.09671e-09      1.98342e-16         134.683        0.0273211         92.3471         0.999348        -178.338
76.435               3.03131e-05     2.78016e-09      3.20762e-16         8.20507        0.0254499         92.2578         0.999412        -178.449
76.47                3.05016e-05    -1.00181e-09      1.27793e-15        -147.144        0.0232469         92.1558         0.999483        -178.579
76.505                 3.069e-05     4.97836e-09      2.57936e-15         152.271        0.0205934         92.0393         0.999561        -178.736
76.54                3.08785e-05     -6.8974e-10      2.17709e-15        -163.418        0.0173073         91.9097         0.999647        -178.931
76.575                3.1067e-05    -1.28337e-09      2.53772e-15         154.097        0.0130933         91.7857          0.99974         -179.18
76.61                3.12555e-05     8.02874e-11      1.23481e-15        -49.9067        0.0074395         91.8254         0.999836        -179.515
76.645                3.1444e-05    -3.87119e-09      8.59748e-16        -80.8298      0.000636746        -99.2632         0.999916        -179.992
76.68                   0.999911         179.474        0.0130502        -90.6357        0.0132045        -90.6462         0.999912         179.264
76.715               3.18232e-05    -6.10291e-09      2.14217e-15         93.7104        0.0358022        -91.6233         0.999515         177.927
76.75                   0.996383         175.322        0.0879621        -94.7852        0.0889642         -94.516         0.996613         174.775
76.785               3.22047e-05    -6.23452e-09      1.12898e-15         95.7736          0.35657        -109.923         0.938499         158.465
76.82                   0.933815         -159.55         0.357462         111.092         0.357136         111.054         0.934057        -158.327
76.855               3.25885e-05     4.64946e-09      2.25154e-15        -97.9336         0.159393         99.5671         0.986626        -170.481
76.89                3.27816e-05     2.02941e-09      3.50382e-15        -172.387         0.112853         96.9393         0.993104        -173.263
76.925               3.29746e-05     -3.3357e-09      1.73105e-15         50.5588        0.0921114         95.7743         0.995303        -174.497
76.96                3.31677e-05     2.99829e-09      1.95856e-15         168.903        0.0803055         95.1118         0.996369        -175.198
76.995               3.33607e-05     7.41022e-10        1.178e-15         -24.078        0.0726329         94.6805         0.996991        -175.654
77.03                3.35538e-05    -6.88031e-09      2.57454e-15          120.62        0.0672082         94.3744         0.997398        -175.975
77.065               3.37468e-05     2.71303e-09      5.21855e-16        -98.1531        0.0631407         94.1435         0.997686        -176.217
77.1                 3.39399e-05     2.23157e-09      1.25635e-15         34.5537        0.0599552         93.9613         0.997902        -176.406
77.135                3.4133e-05    -4.34041e-09      7.53039e-16        -3.35758        0.0573749         93.8122          0.99807        -176.559
77.17                 3.4326e-05     3.88724e-09      1.18353e-15        -149.817        0.0552274         93.6867         0.998207        -176.686
77.205               3.45191e-05    -3.99273e-09      1.39439e-15        -160.573        0.0533999         93.5786          0.99832        -176.794
77.24                3.47121e-05     -2.8783e-09      2.65724e-15         87.3217        0.0518156         93.4836         0.998416        -176.888
77.275               3.49052e-05     2.09274e-09      1.08301e-15         118.908        0.0504198         93.3987         0.998499        -176.971
77.31                3.50982e-05    -3.89629e-09      3.10591e-16         43.8652        0.0491731         93.3218         0.998573        -177.045
77.345               3.52913e-05     7.07417e-09      2.32106e-15        -174.053        0.0480459         93.2511         0.998638        -177.112
77.38                3.54843e-05     3.29538e-11      8.30444e-16         24.5574        0.0470157         93.1855         0.998698        -177.173
77.415               3.56774e-05     1.98274e-09      4.54661e-16         67.7065        0.0460649          93.124         0.998751        -177.229
77.45                3.58705e-05     3.46234e-09       4.3412e-16         162.323        0.0451798         93.0659         0.998801        -177.282
77.485               3.60635e-05     8.46007e-10      1.19607e-15         118.275         0.044349         93.0105         0.998847        -177.331
77.52                3.62566e-05     2.02733e-09      8.14684e-16         -79.454        0.0435634         92.9574          0.99889        -177.378
77.555               3.64496e-05    -4.03821e-09      1.03853e-15         20.1291        0.0428153         92.9061         0.998931        -177.422
77.59                3.66427e-05    -9.25988e-10      1.13612e-15        -152.861        0.0420983         92.8563          0.99897        -177.465
77.625               3.68357e-05    -8.56355e-10      1.10559e-15        -30.2239        0.0414066         92.8077         0.999006        -177.506
77.66                3.70288e-05    -3.69834e-09      4.27657e-16        -137.715        0.0407353         92.7601         0.999041        -177.545
77.695               3.72218e-05    -9.99102e-10      6.65102e-16        -170.198        0.0400799         92.7131         0.999075        -177.584
77.73                3.74149e-05    -2.78151e-09      1.39613e-15         156.096        0.0394364         92.6666         0.999108        -177.622
77.765               3.76079e-05     3.62769e-09      1.04259e-15        -127.756        0.0388006         92.6204         0.999139         -177.66
77.8                  3.7801e-05     4.43639e-09      1.91662e-15         10.3581        0.0381689         92.5743          0.99917        -177.697
77.835                3.7994e-05     2.79901e-09      1.36788e-15         173.856        0.0375374         92.5279           0.9992        -177.735
77.87                3.81871e-05     3.32483e-09      1.06349e-15         -17.045        0.0369021         92.4813          0.99923        -177.772
77.905               3.83802e-05    -5.18913e-09      1.85519e-15         79.8408        0.0362588          92.434          0.99926         -177.81
77.94                3.85732e-05     3.50608e-09      1.08183e-15        -167.367        0.0356028          92.386         0.999289        -177.849
77.975               3.87663e-05    -4.52867e-09      7.28099e-16        -99.7688         0.034929         92.3368         0.999318        -177.888
78.01                3.89593e-05    -3.74368e-09      1.52005e-15        -118.756        0.0342313         92.2861         0.999348        -177.929
78.045               3.91524e-05    -2.17349e-09      1.02083e-15         80.8492        0.0335026         92.2336         0.999378        -177.972
78.08                3.93454e-05     1.95892e-09      2.85104e-15         -12.484        0.0327343         92.1788         0.999408        -178.017
78.115               3.95385e-05    -2.07796e-09      2.31941e-15        -32.2775        0.0319156         92.1211          0.99944        -178.065
78.15                3.97315e-05    -4.11453e-09      1.68619e-15        -154.509        0.0310329         92.0597         0.999472        -178.116
78.185               3.99246e-05    -2.94118e-09      9.39337e-16        -76.1222        0.0300686         91.9936         0.999506        -178.172
78.22                4.01176e-05     2.25043e-09      1.66126e-15          38.141        0.0289991         91.9216         0.999543        -178.235
78.255               4.03107e-05    -3.82531e-09      9.02683e-16        -132.434        0.0277922         91.8418         0.999581        -178.304
78.29                4.05037e-05     -1.5457e-09      1.01176e-15         35.5764        0.0264025         91.7516         0.999623        -178.385
78.325               4.06968e-05     2.30504e-09      7.22008e-16        -59.7877        0.0247637         91.6474         0.999669        -178.479
78.36                4.08899e-05    -8.97355e-09      3.57054e-15         126.211        0.0227745         91.5235         0.999721        -178.594
78.395               4.10829e-05    -2.64967e-09      3.26531e-15        -27.1125        0.0202723         91.3709         0.999779        -178.737
78.43                 4.1276e-05       2.858e-09       1.6973e-15         162.741         0.016978         91.1745         0.999844        -178.926
78.465                4.1469e-05    -6.67378e-10      2.66004e-15        -4.53404        0.0123685          90.907         0.999916         -179.19
78.5                 4.16621e-05    -2.09931e-09      3.20117e-15        -152.396       0.00533477         90.5296         0.999983        -179.591
78.535               4.18551e-05     3.20581e-09      1.37941e-15         55.1143       0.00695689        -90.2969         0.999979         179.708
78.57                4.20505e-05    -6.40899e-10       7.4144e-16        -24.1088        0.0345381        -91.8473         0.999415         178.136
78.605               4.22459e-05    -9.04686e-10      5.46654e-16        -108.718         0.156136        -98.8436         0.987768         171.175
78.64                   0.960771        -163.711         0.277483         106.189          0.27999         106.353         0.959972        -163.756
78.675               4.26369e-05    -5.24063e-10      2.75087e-16         79.4993         0.111321         96.4916         0.993769        -173.551
78.71                4.28325e-05    -4.86493e-09      1.51854e-15          98.233         0.079767         94.6686         0.996808        -175.356
78.745                  0.997792        -176.097         0.066385          93.891        0.0663901         93.8916         0.997794        -176.121
78.78                4.32264e-05     4.42462e-09      2.32992e-15        -65.2463         0.058919         93.4536         0.998267        -176.548
78.815               4.34247e-05     1.70336e-10      5.42808e-16         10.5461        0.0541045          93.168         0.998542        -176.824
78.85                 4.3623e-05     -5.4907e-09      1.00818e-15          75.673        0.0507083         92.9638         0.998723        -177.019
78.885               4.38213e-05     2.88322e-09      8.64215e-16         111.192        0.0481591         92.8082         0.998852        -177.165
78.92                4.40195e-05     1.76502e-09      1.11318e-15         11.5101        0.0461559          92.684         0.998948         -177.28
78.955               4.42178e-05    -1.26145e-09      1.26942e-15        -140.829        0.0445256         92.5813         0.999024        -177.374
78.99                4.44161e-05    -1.42448e-10      6.07772e-16         -98.011         0.043161          92.494         0.999086        -177.453
79.025               4.46144e-05     2.19577e-09      8.80859e-16         96.4064        0.0419925         92.4181         0.999137        -177.521
79.06                4.48127e-05    -2.27839e-09      1.50982e-15        -136.378         0.040973         92.3509         0.999181         -177.58
79.095                4.5011e-05    -2.02771e-10      5.87351e-16         174.796         0.040069         92.2905         0.999219        -177.633
79.13                4.52092e-05      4.2169e-09      1.58159e-15         173.459        0.0392565         92.2355         0.999252         -177.68
79.165               4.54075e-05    -1.19392e-09      1.20594e-15        -66.9878        0.0385177         92.1849         0.999282        -177.723
79.2                 4.56058e-05     1.28848e-09      1.21461e-15         63.0696         0.037839          92.138         0.999309        -177.763
79.235               4.58041e-05    -8.58001e-10      1.98161e-15        -134.291        0.0372098         92.0942         0.999334          -177.8
79.27                4.60024e-05    -3.68655e-09      1.94112e-15        -135.302        0.0366221          92.053         0.999356        -177.835
79.305               4.62007e-05     1.63998e-09       2.2237e-15        -22.6865        0.0360691          92.014         0.999377        -177.868
79.34                4.63989e-05    -3.09884e-09      6.52487e-16         119.282        0.0355457         91.9769         0.999396        -177.899
79.375               4.65972e-05     4.87708e-09      9.92423e-16        -152.427        0.0350474         91.9415         0.999414        -177.928
79.41                4.67955e-05      3.0309e-09      1.20927e-15        -33.6628        0.0345706         91.9076         0.999431        -177.956
79.445               4.69938e-05     3.79049e-09      8.16023e-16        -11.0942        0.0341123         91.8751         0.999448        -177.984
79.48                4.71921e-05    -1.73304e-09      7.18041e-16         140.193          0.03367         91.8437         0.999463         -178.01
79.515               4.73904e-05    -1.66543e-09      2.61493e-16         -56.914        0.0332415         91.8134         0.999477        -178.036
79.55                4.75886e-05    -3.77118e-09      1.78419e-15         91.8492         0.032825          91.784         0.999491         -178.06
79.585               4.77869e-05     1.48033e-09      9.03112e-16        -148.721        0.0324187         91.7556         0.999505        -178.085
79.62                4.79852e-05    -2.59592e-10      9.41205e-16         -27.062        0.0320213         91.7279         0.999517        -178.109
79.655               4.81835e-05    -1.86007e-09      1.60738e-15          103.01        0.0316316          91.701          0.99953        -178.132
79.69                4.83818e-05      1.4542e-09       9.7669e-16        -83.7031        0.0312484         91.6748         0.999542        -178.155
79.725               4.85801e-05     8.29213e-11      9.95889e-16        -162.011        0.0308706         91.6492         0.999553        -178.178
79.76                4.87783e-05    -1.18416e-09      8.15288e-16        -143.723        0.0304975         91.6242         0.999565          -178.2
79.795               4.89766e-05    -2.89552e-09       2.8672e-16        -51.4246        0.0301281         91.5997         0.999575        -178.222
79.83                4.91749e-05     9.12441e-10      1.86317e-15        -92.8822        0.0297618         91.5757         0.999586        -178.244
79.865               4.93732e-05    -5.23927e-10      6.17049e-16         83.4782        0.0293977         91.5522         0.999596        -178.266
79.9                 4.95715e-05    -6.90651e-09      1.45203e-15        -138.279        0.0290353         91.5292         0.999607        -178.288
79.935               4.97698e-05    -8.04488e-10      4.37968e-16         95.2042        0.0286739         91.5066         0.999616         -178.31
79.97                 4.9968e-05     3.17739e-10      1.10701e-15        -34.1234        0.0283129         91.4844         0.999626        -178.332
80.005               5.01663e-05    -2.69119e-09      6.61013e-16         91.2401        0.0279517         91.4625         0.999636        -178.354
80.04                5.03646e-05     8.69749e-11      6.29794e-16        -45.0614        0.0275899          91.441         0.999645        -178.375
80.075               5.05629e-05     2.61491e-09      3.81846e-16         88.3507        0.0272268         91.4199         0.999654        -178.397
80.11                5.07612e-05    -1.48371e-10      5.69042e-16        -60.9361         0.026862         91.3991         0.999663        -178.419
80.145               5.09594e-05    -2.12927e-09      4.79266e-16         99.0859        0.0264949         91.3786         0.999672        -178.442
80.18                5.11577e-05    -2.59962e-09      2.45069e-15         92.9051         0.026125         91.3584         0.999681        -178.464
80.215                5.1356e-05     2.27218e-09      1.45583e-15        -143.064        0.0257519         91.3386          0.99969        -178.487
80.25                5.15543e-05    -4.94277e-09      5.90092e-16        -173.679        0.0253749         91.3191         0.999698        -178.509
80.285               5.17526e-05    -1.33481e-09      2.78096e-15        -97.9826        0.0249935            91.3         0.999707        -178.532
80.32                5.19509e-05     5.33963e-10      1.05771e-15        0.195856        0.0246073         91.2812         0.999716        -178.556
80.355               5.21491e-05     1.30954e-09      1.05669e-15        -76.1986        0.0242156         91.2629         0.999724         -178.58
80.39                5.23474e-05    -2.78999e-09      8.25328e-16        -112.146        0.0238179          91.245         0.999732        -178.604
80.425               5.25457e-05     -2.7553e-10       1.1795e-15         78.1016        0.0234137         91.2278         0.999741        -178.628
80.46                 5.2744e-05    -1.72599e-10      9.99743e-16        -152.789        0.0230023         91.2113         0.999749        -178.653
80.495               5.29423e-05    -5.01138e-10      1.15128e-15         57.1084        0.0225831         91.1957         0.999757        -178.679
80.53                5.31405e-05    -4.87042e-10      5.34714e-16         71.7252        0.0221556         91.1813         0.999765        -178.705
80.565               5.33388e-05    -3.24023e-10      1.21774e-15        -121.664        0.0217192         91.1685         0.999773        -178.731
80.6                 5.35371e-05    -3.78955e-09      1.33018e-15        -132.966        0.0212733         91.1579         0.999782        -178.758
80.635               5.37354e-05     1.05032e-10      1.66867e-15         18.4849        0.0208176         91.1503          0.99979        -178.786
80.67                5.39337e-05    -6.19326e-10      1.85612e-15         -139.84        0.0203519         91.1469         0.999798        -178.815
80.705               5.41319e-05    -6.19987e-10      8.02206e-16        -51.3458         0.019877         91.1493         0.999806        -178.845
80.74                5.43302e-05       -8.62e-10      2.09377e-15        -132.562        0.0193954         91.1577         0.999814        -178.875
80.775               5.45285e-05     1.49205e-09      4.16401e-16         109.239         0.018914         91.1628         0.999822        -178.906
80.81                   0.999831        -178.912        0.0183811         91.0769        0.0184452         91.0976          0.99983        -178.939
80.845               5.49279e-05    -4.53753e-09       4.7804e-16        -36.8734        0.0179419         90.7712         0.999838        -178.973
80.88                5.51291e-05    -3.00708e-10      5.28054e-16         89.4328        0.0173018         90.4692         0.999846        -179.007
80.915               5.53302e-05     6.49564e-10      5.42773e-16          72.465        0.0166485         90.4578         0.999854        -179.044
80.95                5.55314e-05     2.15871e-10      5.38094e-16         -22.015        0.0160131          90.497         0.999861        -179.082
80.985               5.57325e-05    -4.57673e-10      1.72173e-15        -50.9066        0.0153713         90.5206         0.999869        -179.121
81.02                5.59337e-05    -1.32313e-09       1.0354e-15        -95.8086        0.0147117         90.5277         0.999877        -179.163
81.055               5.61348e-05     1.61164e-09      7.30921e-16        -87.9943        0.0140292         90.5229         0.999884        -179.206
81.09                   0.999932        -179.239        0.0133011         90.7334         0.013322         90.5099         0.999892        -179.252
81.125               5.65379e-05     1.13193e-09      2.48072e-16        -139.303         0.012587         90.4908         0.999899        -179.301
81.16                5.67398e-05    -1.00139e-09      4.48445e-16        -88.7295        0.0118269         90.4671         0.999906        -179.353
81.195               5.69417e-05    -1.10696e-09      7.01392e-16         84.8055        0.0110448         90.4398         0.999913        -179.409
81.23                5.71436e-05     1.69219e-09      7.34521e-16        -169.942        0.0102504         90.4093         0.999919         -179.47
81.265               5.73455e-05     4.63949e-10      1.70765e-16        -78.8222       0.00946936         90.3756         0.999924        -179.538
81.3                 5.75474e-05     1.11724e-11      4.01336e-16        -86.9794       0.00877231         90.3359         0.999928        -179.618
81.335               5.77493e-05    -1.31201e-09      4.12314e-16        -114.494       0.00841227         90.2752         0.999931        -179.726
81.37                   0.999942        -179.951         0.010164         90.0266        0.0101616         90.0417         0.999947        -179.975
81.405               5.81535e-05     3.32924e-09      1.68524e-16        -84.1699       0.00681208        -88.1583                1        -179.234
81.44                5.83558e-05     1.58228e-09      2.59653e-16        -101.442      1.09627e-05        -96.4511                1        -179.696
81.475               5.85585e-05    -2.34875e-09      1.11983e-15        -70.5497      0.000385914        -92.0178         0.999982        -179.841
81.51                5.87612e-05    -3.89102e-11       4.4104e-16         136.223       0.00156162         -90.805         0.999975        -179.959
81.545               5.89639e-05     9.31965e-10      4.51013e-16         134.938       0.00309146        -90.6344          0.99997         179.925
81.58                5.91666e-05    -7.15428e-10      1.45684e-15        -29.6307       0.00488388        -90.6274         0.999962         179.805
81.615               5.93693e-05    -9.13786e-10      2.53644e-14        -64.3547       0.00692592        -90.6821         0.999951         179.675
81.65                5.95721e-05    -1.70415e-09      1.39127e-15         72.4337        0.0092349        -90.7725         0.999935         179.532
81.685                   0.99959         179.381        0.0120352         -90.929        0.0118474        -90.8906          0.99991         179.374
81.72                5.99782e-05    -4.54585e-09      1.55653e-15        -26.0081         0.014814        -91.0347         0.999876         179.197
81.755               6.01816e-05    -7.84121e-10      7.11363e-16        -157.422        0.0182088        -91.2063         0.999826         178.996
81.79                 6.0385e-05    -3.49745e-09      1.11486e-15        -67.5073        0.0221287        -91.4095         0.999754         178.765
81.825               6.05884e-05     1.59944e-10      2.10016e-16        -25.9496        0.0267061        -91.6505         0.999652         178.497
81.86                6.07918e-05    -1.32698e-09      1.49168e-15          144.89        0.0321248        -91.9387         0.999503          178.18
81.895               6.09952e-05    -3.78984e-09      1.21844e-15        -174.108        0.0386456        -92.2879         0.999285         177.799