! TOUCHSTONE file generated by CST MICROWAVE STUDIO
! Date and time: Wed Feb  7 22:17:31 2024
! Project name: metal_desal.cst
! Header version: 2018
! Port assignment regex: !\s*Touchstone port\s*([0-9]+)\s*=\s*(CST MWS port|CST DS port)\s*([0-9]+|Zmin|Zmax)\s*\(\"(.*)\"\)(\s*mode\s*([0-9]+))?.*
! Touchstone port assignment:
! Touchstone port 1 = CST MWS port 1 ("")
! Touchstone port 2 = CST MWS port 2 ("")
# GHz S MA R 376.7
75                      0.994169        -176.542                0               0                0               0         0.994204        -176.551
75.035                  0.994193        -176.879      3.67654e-65          179.98      3.67654e-65          179.98          0.99423        -176.887
75.07                   0.994216        -177.215      3.67655e-65         179.982      3.67655e-65         179.982         0.994255        -177.223
75.105                  0.994238        -177.552      3.67657e-65         179.984      3.67657e-65         179.984         0.994278        -177.558
75.14                   0.994259        -177.889      3.67658e-65         179.987      3.67658e-65         179.987           0.9943        -177.894
75.175                  0.994279        -178.225       3.6766e-65         179.989       3.6766e-65         179.989          0.99432         -178.23
75.21                   0.994299        -178.562      3.67662e-65         179.991      3.67662e-65         179.991         0.994339        -178.566
75.245                  0.994319        -178.899      3.67663e-65         179.993      3.67663e-65         179.993         0.994357        -178.902
75.28                   0.994337        -179.235      3.67665e-65         179.995      3.67665e-65         179.995         0.994374        -179.238
75.315                  0.994355        -179.572      3.67667e-65         179.997      3.67667e-65         179.997          0.99439        -179.574
75.35                   0.994372        -179.909      3.67669e-65         179.999      3.67669e-65         179.999         0.994405         -179.91
75.385                  0.994389         179.755      3.67671e-65        -179.998      3.67671e-65        -179.998         0.994419         179.754
75.42                   0.994405         179.418      3.67673e-65        -179.996      3.67673e-65        -179.996         0.994432         179.418
75.455                  0.994421         179.081      3.57739e-65        -179.994      3.57739e-65        -179.994         0.994444         179.082
75.49                   0.994436         178.745      3.57741e-65        -179.992      3.57741e-65        -179.992         0.994456         178.745
75.525                   0.99445         178.408      3.57743e-65         -179.99      3.57743e-65         -179.99         0.994468         178.409
75.56                   0.994464         178.072      3.57745e-65        -179.988      3.57745e-65        -179.988         0.994478         178.073
75.595                  0.994477         177.735      3.57748e-65        -179.986      3.57748e-65        -179.986         0.994489         177.737
75.63                    0.99449         177.398      3.57751e-65        -179.984      3.57751e-65        -179.984         0.994498           177.4
75.665                  0.994502         177.062      3.57753e-65        -179.982      3.57753e-65        -179.982         0.994508         177.064
75.7                    0.994514         176.725      3.57756e-65        -179.979      3.57756e-65        -179.979         0.994517         176.728
75.735                  0.994525         176.388      3.57759e-65        -179.977      3.57759e-65        -179.977         0.994525         176.391
75.77                   0.994536         176.052      3.57762e-65        -179.975      3.57762e-65        -179.975         0.994533         176.055
75.805                  0.994546         175.715      3.57764e-65        -179.973      3.57764e-65        -179.973         0.994541         175.719
75.84                   0.994556         175.379      3.57767e-65        -179.971      3.57767e-65        -179.971         0.994549         175.382
75.875                  0.994566         175.042      3.57771e-65        -179.969      3.57771e-65        -179.969         0.994556         175.046
75.91                   0.994574         174.706      3.57774e-65        -179.967      3.57774e-65        -179.967         0.994563         174.709
75.945                  0.994583         174.369      3.57777e-65        -179.965      3.57777e-65        -179.965          0.99457         174.373
75.98                   0.994591         174.033       3.5778e-65        -179.963       3.5778e-65        -179.963         0.994576         174.036
76.015                  0.994598         173.696      3.57784e-65        -179.961      3.57784e-65        -179.961         0.994582           173.7
76.05                   0.994605          173.36      3.57787e-65        -179.959      3.57787e-65        -179.959         0.994587         173.364
76.085                  0.994611         173.023      3.57791e-65        -179.957      3.57791e-65        -179.957         0.994593         173.027
76.12                   0.994617         172.687      3.47855e-65        -179.955      3.47855e-65        -179.955         0.994598         172.691
76.155                  0.994623          172.35      3.47859e-65        -179.953      3.47859e-65        -179.953         0.994602         172.355
76.19                   0.994627         172.014      3.47863e-65        -179.951      3.47863e-65        -179.951         0.994606         172.018
76.225                  0.994632         171.678      3.47866e-65        -179.949      3.47866e-65        -179.949          0.99461         171.682
76.26                   0.994635         171.341       3.4787e-65        -179.947       3.4787e-65        -179.947         0.994614         171.346
76.295                  0.994638         171.005      3.47874e-65        -179.945      3.47874e-65        -179.945         0.994616          171.01
76.33                   0.994641         170.669      3.47878e-65        -179.943      3.47878e-65        -179.943         0.994619         170.673
76.365                  0.994643         170.333      3.47882e-65        -179.941      3.47882e-65        -179.941         0.994621         170.337
76.4                    0.994644         169.997      3.47886e-65        -179.939      3.47886e-65        -179.939         0.994622         170.001
76.435                  0.994644         169.661       3.4789e-65        -179.937       3.4789e-65        -179.937         0.994623         169.665
76.47                   0.994644         169.325      3.47894e-65        -179.935      3.47894e-65        -179.935         0.994623          169.33
76.505                  0.994642         168.989      3.47898e-65        -179.933      3.47898e-65        -179.933         0.994622         168.994
76.54                    0.99464         168.653      3.47903e-65        -179.931      3.47903e-65        -179.931         0.994621         168.658
76.575                  0.994637         168.318      3.37967e-65        -179.929      3.37967e-65        -179.929         0.994619         168.323
76.61                   0.994632         167.982      3.37971e-65        -179.927      3.37971e-65        -179.927         0.994615         167.987
76.645                  0.994626         167.647      3.37975e-65        -179.925      3.37975e-65        -179.925         0.994611         167.652
76.68                   0.994619         167.312       3.3798e-65        -179.923       3.3798e-65        -179.923         0.994606         167.317
76.715                  0.994611         166.977      3.37984e-65        -179.921      3.37984e-65        -179.921         0.994599         166.982
76.75                   0.994601         166.643      3.37989e-65        -179.919      3.37989e-65        -179.919         0.994591         166.648
76.785                  0.994589         166.309                0               0                0               0         0.994582         166.314
76.82                   0.994575         165.975      3.37998e-65        -179.915      3.37998e-65        -179.915         0.994571         165.981
76.855                  0.994559         165.643      3.38003e-65        -179.913      3.38003e-65        -179.913         0.994558         165.648
76.89                   0.994541         165.311      3.38008e-65        -179.911      3.38008e-65        -179.911         0.994545         165.316
76.925                  0.994522          164.98      3.38013e-65         -179.91      3.38013e-65         -179.91         0.994531         164.986
76.96                   0.994504         164.651      3.38017e-65        -179.908      3.38017e-65        -179.908         0.994519         164.657
76.995                  0.994489         164.324      3.38022e-65        -179.906      3.38022e-65        -179.906         0.994512          164.33
77.03                   0.994488         164.001      3.28085e-65        -179.904      3.28085e-65        -179.904         0.994521         164.007
77.065                  0.994521         163.683       3.2809e-65        -179.902       3.2809e-65        -179.902         0.994568         163.689
77.1                    0.994647         163.374      3.28094e-65        -179.901      3.28094e-65        -179.901         0.994711         163.379
77.135                  0.995022         163.076      3.28098e-65        -179.899      3.28098e-65        -179.899         0.995101         163.079
77.17                   0.996047         162.784      3.28101e-65        -179.897      3.28101e-65        -179.897         0.996116         162.785
77.205                  0.998143         162.444      3.28102e-65        -179.895      3.28102e-65        -179.895         0.998146         162.444
77.24                   0.999565         161.985      3.28106e-65        -179.892      3.28106e-65        -179.892         0.999571         161.988
77.275                  0.998868         161.539      3.28114e-65         -179.89      3.28114e-65         -179.89         0.998895         161.541
77.31                   0.997828         161.165      3.28122e-65        -179.888      3.28122e-65        -179.888         0.997834         161.166
77.345                  0.997102         160.821      3.28129e-65        -179.886      3.28129e-65        -179.886          0.99709         160.822
77.38                   0.996634         160.486      3.28135e-65        -179.885      3.28135e-65        -179.885         0.996612         160.488
77.415                  0.996323         160.153      3.28141e-65        -179.883      3.28141e-65        -179.883         0.996297         160.156
77.45                   0.996108         159.821      3.28147e-65        -179.881      3.28147e-65        -179.881          0.99608         159.824
77.485                  0.995952         159.488      3.18209e-65        -179.879      3.18209e-65        -179.879         0.995924         159.492
77.52                   0.995835         159.155      3.18215e-65        -179.878      3.18215e-65        -179.878         0.995809         159.159
77.555                  0.995745         158.821       3.1822e-65        -179.876       3.1822e-65        -179.876          0.99572         158.825
77.59                   0.995674         158.487      3.18226e-65        -179.874      3.18226e-65        -179.874         0.995651         158.491
77.625                  0.995616         158.152      3.18232e-65        -179.872      3.18232e-65        -179.872         0.995595         158.157
77.66                   0.995567         157.817      3.18238e-65        -179.871      3.18238e-65        -179.871         0.995551         157.823
77.695                  0.995526         157.482      3.18244e-65        -179.869      3.18244e-65        -179.869         0.995514         157.488
77.73                   0.995489         157.146      3.18249e-65        -179.867      3.18249e-65        -179.867         0.995483         157.153
77.765                  0.995454          156.81      3.18255e-65        -179.865      3.18255e-65        -179.865         0.995458         156.817
77.8                    0.995417         156.474      3.18261e-65        -179.864      3.18261e-65        -179.864         0.995436         156.482
77.835                  0.995372         156.138      3.18267e-65        -179.862      3.18267e-65        -179.862         0.995418         156.146
77.87                   0.995312         155.803      3.18273e-65         -179.86      3.18273e-65         -179.86         0.995402         155.811
77.905                  0.995262          155.47       3.1828e-65        -179.859       3.1828e-65        -179.859         0.995389         155.475
77.94                   0.995284         155.138      3.18286e-65        -179.857      3.18286e-65        -179.857         0.995377         155.139
77.975                  0.995327         154.803      3.18292e-65        -179.855      3.18292e-65        -179.855         0.995367         154.803
78.01                   0.995348         154.466      3.18298e-65        -179.854      3.18298e-65        -179.854         0.995359         154.467
78.045                  0.995355         154.129      3.18304e-65        -179.852      3.18304e-65        -179.852         0.995352         154.131
78.08                   0.995356         153.792      3.18311e-65         -179.85      3.18311e-65         -179.85         0.995346         153.795
78.115                  0.995355         153.456      3.18317e-65        -179.849      3.18317e-65        -179.849          0.99534         153.459
78.15                   0.995352         153.119      3.08376e-65        -179.847      3.08376e-65        -179.847         0.995336         153.122
78.185                   0.99535         152.782      3.08382e-65        -179.845      3.08382e-65        -179.845         0.995332         152.786
78.22                   0.995347         152.446      3.08389e-65        -179.844      3.08389e-65        -179.844          0.99533          152.45
78.255                  0.995345         152.109      3.08395e-65        -179.842      3.08395e-65        -179.842         0.995327         152.113
78.29                   0.995344         151.772      3.08401e-65         -179.84      3.08401e-65         -179.84         0.995325         151.777
78.325                  0.995342         151.436      3.08408e-65        -179.839      3.08408e-65        -179.839         0.995324         151.441
78.36                   0.995341         151.099      3.08414e-65        -179.837      3.08414e-65        -179.837         0.995324         151.104
78.395                   0.99534         150.763      3.08421e-65        -179.836      3.08421e-65        -179.836         0.995323         150.768
78.43                    0.99534         150.426      3.08427e-65        -179.834      3.08427e-65        -179.834         0.995323         150.431
78.465                   0.99534         150.089      3.08434e-65        -179.833      3.08434e-65        -179.833         0.995324         150.095
78.5                     0.99534         149.753      3.08441e-65        -179.831      3.08441e-65        -179.831         0.995325         149.758
78.535                  0.995341         149.416      3.08447e-65        -179.829      3.08447e-65        -179.829         0.995326         149.422
78.57                   0.995342         149.079                0               0                0               0         0.995328         149.085
78.605                  0.995344         148.743      3.08461e-65        -179.826      3.08461e-65        -179.826          0.99533         148.749
78.64                   0.995345         148.406      3.08468e-65        -179.825      3.08468e-65        -179.825         0.995333         148.412
78.675                  0.995347         148.069      3.08475e-65        -179.823      3.08475e-65        -179.823         0.995336         148.076
78.71                   0.995349         147.733      3.08482e-65        -179.822      3.08482e-65        -179.822          0.99534         147.739
78.745                  0.995352         147.396      3.08489e-65         -179.82      3.08489e-65         -179.82         0.995345         147.403
78.78                   0.995355         147.059      3.08496e-65        -179.819      3.08496e-65        -179.819          0.99535         147.066
78.815                  0.995358         146.723      3.08503e-65        -179.817      3.08503e-65        -179.817         0.995357         146.729
78.85                   0.995361         146.386       3.0851e-65        -179.816       3.0851e-65        -179.816         0.995365         146.392
78.885                  0.995365         146.049      2.98565e-65        -179.814      2.98565e-65        -179.814         0.995373         146.055
78.92                   0.995369         145.712      2.98572e-65        -179.813      2.98572e-65        -179.813         0.995374         145.718
78.955                  0.995373         145.376      2.98579e-65        -179.811      2.98579e-65        -179.811         0.995358         145.381
78.99                   0.995378         145.039      2.98586e-65         -179.81      2.98586e-65         -179.81         0.995345         145.045
79.025                  0.995383         144.702      2.98593e-65        -179.809      2.98593e-65        -179.809         0.995346         144.709
79.06                   0.995388         144.366        2.986e-65        -179.807        2.986e-65        -179.807         0.995353         144.372
79.095                  0.995393         144.029      2.98607e-65        -179.806      2.98607e-65        -179.806          0.99536         144.036
79.13                   0.995399         143.692      2.98614e-65        -179.804      2.98614e-65        -179.804         0.995367           143.7
79.165                  0.995405         143.356      2.98621e-65        -179.803      2.98621e-65        -179.803         0.995375         143.363
79.2                    0.995412         143.019      2.98629e-65        -179.802      2.98629e-65        -179.802         0.995382         143.027
79.235                  0.995418         142.682      2.98636e-65          -179.8      2.98636e-65          -179.8          0.99539          142.69
79.27                   0.995425         142.346      2.98643e-65        -179.799      2.98643e-65        -179.799         0.995398         142.354
79.305                  0.995433         142.009      2.98651e-65        -179.798      2.98651e-65        -179.798         0.995406         142.017
79.34                   0.995441         141.672      2.98658e-65        -179.796      2.98658e-65        -179.796         0.995414          141.68
79.375                  0.995449         141.335      2.98665e-65        -179.795      2.98665e-65        -179.795         0.995423         141.344
79.41                   0.995458         140.999      2.98673e-65        -179.794      2.98673e-65        -179.794         0.995432         141.007
79.445                  0.995467         140.662       2.9868e-65        -179.792       2.9868e-65        -179.792         0.995442         140.671
79.48                   0.995477         140.325      2.98688e-65        -179.791      2.98688e-65        -179.791         0.995451         140.334
79.515                  0.995487         139.989      2.88739e-65         -179.79      2.88739e-65         -179.79         0.995462         139.998
79.55                   0.995498         139.652      2.88746e-65        -179.788      2.88746e-65        -179.788         0.995472         139.661
79.585                  0.995509         139.315      2.88753e-65        -179.787      2.88753e-65        -179.787         0.995484         139.324
79.62                    0.99552         138.979      2.88761e-65        -179.786      2.88761e-65        -179.786         0.995495         138.988
79.655                  0.995532         138.642      2.88768e-65        -179.785      2.88768e-65        -179.785         0.995508         138.651
79.69                   0.995545         138.305      2.88776e-65        -179.783      2.88776e-65        -179.783          0.99552         138.315
79.725                  0.995559         137.969      2.88783e-65        -179.782      2.88783e-65        -179.782         0.995534         137.978
79.76                   0.995573         137.632      2.88791e-65        -179.781      2.88791e-65        -179.781         0.995548         137.642
79.795                  0.995587         137.296                0               0                0               0         0.995563         137.305
79.83                   0.995603         136.959      2.88806e-65        -179.778      2.88806e-65        -179.778         0.995578         136.968
79.865                  0.995619         136.622      2.88813e-65        -179.777      2.88813e-65        -179.777         0.995594         136.632
79.9                    0.995636         136.286      2.88821e-65        -179.776      2.88821e-65        -179.776         0.995611         136.295
79.935                  0.995654         135.949      2.88828e-65        -179.775      2.88828e-65        -179.775         0.995628         135.959
79.97                   0.995672         135.612      2.88836e-65        -179.774      2.88836e-65        -179.774         0.995647         135.622
80.005                  0.995692         135.276      2.88844e-65        -179.772      2.88844e-65        -179.772         0.995666         135.286
80.04                   0.995713         134.939      2.88852e-65        -179.771      2.88852e-65        -179.771         0.995687         134.949
80.075                  0.995734         134.603      2.88859e-65         -179.77      2.88859e-65         -179.77         0.995708         134.613
80.11                   0.995757         134.266      2.88867e-65        -179.769      2.88867e-65        -179.769          0.99573         134.276
80.145                   0.99578         133.929      2.78914e-65        -179.768      2.78914e-65        -179.768         0.995754          133.94
80.18                   0.995805         133.593      2.78921e-65        -179.767      2.78921e-65        -179.767         0.995778         133.603
80.215                  0.995831         133.256      2.78929e-65        -179.766      2.78929e-65        -179.766         0.995804         133.267
80.25                   0.995859          132.92      2.78936e-65        -179.765      2.78936e-65        -179.765         0.995831          132.93
80.285                  0.995887         132.583      2.78944e-65        -179.763      2.78944e-65        -179.763         0.995859         132.593
80.32                   0.995917         132.247      2.78952e-65        -179.762      2.78952e-65        -179.762         0.995889         132.257
80.355                  0.995949          131.91      2.78959e-65        -179.761      2.78959e-65        -179.761          0.99592          131.92
80.39                   0.995982         131.573      2.78967e-65         -179.76      2.78967e-65         -179.76         0.995953         131.584
80.425                  0.996017         131.237      2.78975e-65        -179.759      2.78975e-65        -179.759         0.995987         131.247
80.46                   0.996054           130.9      2.78982e-65        -179.758      2.78982e-65        -179.758         0.996023         130.911
80.495                  0.996092         130.563       2.7899e-65        -179.757       2.7899e-65        -179.757         0.996061         130.574
80.53                   0.996133         130.227      2.78998e-65        -179.756      2.78998e-65        -179.756         0.996101         130.237
80.565                  0.996175          129.89      2.79006e-65        -179.755      2.79006e-65        -179.755         0.996143         129.901
80.6                     0.99622         129.553      2.79014e-65        -179.754      2.79014e-65        -179.754         0.996187         129.564
80.635                  0.996267         129.217      2.79021e-65        -179.753      2.79021e-65        -179.753         0.996234         129.227
80.67                   0.996316          128.88      2.79029e-65        -179.752      2.79029e-65        -179.752         0.996282          128.89
80.705                  0.996368         128.543      2.79037e-65        -179.751      2.79037e-65        -179.751         0.996334         128.554
80.74                   0.996422         128.206      2.79045e-65         -179.75      2.79045e-65         -179.75         0.996388         128.217
80.775                   0.99648         127.869      2.79053e-65        -179.749      2.79053e-65        -179.749         0.996446          127.88
80.81                    0.99654         127.532      2.79061e-65        -179.748      2.79061e-65        -179.748         0.996507         127.543
80.845                  0.996603         127.195      2.69102e-65        -179.747      2.69102e-65        -179.747         0.996572         127.205
80.88                    0.99667         126.858       2.6911e-65        -179.746       2.6911e-65        -179.746         0.996642         126.868
80.915                   0.99674         126.521      2.69118e-65        -179.746      2.69118e-65        -179.746         0.996717         126.531
80.95                   0.996814         126.183      2.69125e-65        -179.745      2.69125e-65        -179.745         0.996796         126.193
80.985                  0.996891         125.846      2.69133e-65        -179.744      2.69133e-65        -179.744         0.996879         125.856
81.02                   0.996972         125.508      2.69141e-65        -179.743      2.69141e-65        -179.743         0.996963         125.519
81.055                  0.997057          125.17      2.69149e-65        -179.742      2.69149e-65        -179.742         0.997049         125.181
81.09                   0.997146         124.832      2.69156e-65        -179.741      2.69156e-65        -179.741         0.997138         124.844
81.125                   0.99724         124.494      2.69164e-65         -179.74      2.69164e-65         -179.74         0.997231         124.505
81.16                   0.997338         124.155                0               0                0               0         0.997327         124.167
81.195                   0.99744         123.817       2.6918e-65        -179.739       2.6918e-65        -179.739         0.997429         123.829
81.23                   0.997547         123.477      2.69188e-65        -179.738      2.69188e-65        -179.738         0.997535          123.49
81.265                  0.997658         123.138      2.69196e-65        -179.737      2.69196e-65        -179.737         0.997646          123.15
81.3                    0.997774         122.798      2.69204e-65        -179.736      2.69204e-65        -179.736         0.997761          122.81
81.335                  0.997893         122.458      2.69212e-65        -179.735      2.69212e-65        -179.735          0.99788          122.47
81.37                   0.998017         122.117      2.69219e-65        -179.734      2.69219e-65        -179.734         0.998004          122.13
81.405                  0.998145         121.776      2.69227e-65        -179.734      2.69227e-65        -179.734         0.998132         121.788
81.44                   0.998275         121.434      2.69235e-65        -179.733      2.69235e-65        -179.733         0.998263         121.447
81.475                  0.998409         121.091      2.69244e-65        -179.732      2.69244e-65        -179.732         0.998397         121.104
81.51                   0.998544         120.748      2.59279e-65        -179.731      2.59279e-65        -179.731         0.998533         120.761
81.545                   0.99868         120.404      2.59287e-65        -179.731      2.59287e-65        -179.731         0.998671         120.417
81.58                   0.998816         120.059      2.59295e-65         -179.73      2.59295e-65         -179.73         0.998808         120.072
81.615                   0.99895         119.714      2.59303e-65        -179.729      2.59303e-65        -179.729         0.998943         119.727
81.65                    0.99908         119.367      2.59311e-65        -179.728      2.59311e-65        -179.728         0.999076          119.38
81.685                  0.999206          119.02      2.59319e-65        -179.728      2.59319e-65        -179.728         0.999204         119.033
81.72                   0.999325         118.671      2.59327e-65        -179.727      2.59327e-65        -179.727         0.999325         118.685
81.755                  0.999434         118.322      2.59335e-65        -179.726      2.59335e-65        -179.726         0.999436         118.335
81.79                   0.999531         117.972      2.59343e-65        -179.725      2.59343e-65        -179.725         0.999536         117.985
81.825                  0.999614          117.62      2.59351e-65        -179.725      2.59351e-65        -179.725         0.999621         117.634
81.86                   0.999679         117.268      2.59359e-65        -179.724      2.59359e-65        -179.724          0.99969         117.281
81.895                  0.999725         116.915      2.59367e-65        -179.723      2.59367e-65        -179.723         0.999738         116.929