! TOUCHSTONE file generated by CST MICROWAVE STUDIO
! Date and time: Wed Feb 14 15:11:38 2024
! Project name: metal_rotado.cst
! Parameters = {angY=0.75}
! Header version: 2018
! Port assignment regex: !\s*Touchstone port\s*([0-9]+)\s*=\s*(CST MWS port|CST DS port)\s*([0-9]+|Zmin|Zmax)\s*\(\"(.*)\"\)(\s*mode\s*([0-9]+))?.*
! Touchstone port assignment:
! Touchstone port 1 = CST MWS port 1 ("")
! Touchstone port 2 = CST MWS port 2 ("")
# GHz S MA R 376.7
75                             1         168.111                0               0                0               0                1        -168.422
75.035                  0.999999         167.769      5.08632e-65        -179.999      5.08632e-65        -179.999         0.999998        -168.754
75.07                   0.999999         167.427      5.08633e-65        -179.998      5.08633e-65        -179.998         0.999997        -169.086
75.105                  0.999998         167.084      5.08633e-65        -179.997      5.08633e-65        -179.997         0.999996        -169.418
75.14                   0.999998         166.742      5.08633e-65        -179.996      5.08633e-65        -179.996         0.999996         -169.75
75.175                  0.999998           166.4      5.08633e-65        -179.995      5.08633e-65        -179.995         0.999996        -170.082
75.21                   0.999998         166.058      5.08633e-65        -179.994      5.08633e-65        -179.994         0.999996        -170.413
75.245                  0.999998         165.716      5.08634e-65        -179.993      5.08634e-65        -179.993         0.999996        -170.745
75.28                   0.999998         165.374      4.98661e-65        -179.992      4.98661e-65        -179.992         0.999996        -171.076
75.315                  0.999998         165.031      4.98661e-65        -179.991      4.98661e-65        -179.991         0.999997        -171.407
75.35                   0.999998         164.689      4.98662e-65        -179.991      4.98662e-65        -179.991         0.999997        -171.738
75.385                  0.999998         164.347      4.98662e-65         -179.99      4.98662e-65         -179.99         0.999998         -172.07
75.42                   0.999999         164.005      4.98663e-65        -179.989      4.98663e-65        -179.989         0.999998        -172.401
75.455                  0.999999         163.663      4.98664e-65        -179.988      4.98664e-65        -179.988         0.999999        -172.732
75.49                   0.999999         163.321      4.98664e-65        -179.987      4.98664e-65        -179.987         0.999999        -173.063
75.525                         1         162.979      4.98665e-65        -179.986      4.98665e-65        -179.986                1        -173.394
75.56                          1         162.637      4.98666e-65        -179.985      4.98666e-65        -179.985                1        -173.725
75.595                         1         162.295      4.98667e-65        -179.984      4.98667e-65        -179.984                1        -174.056
75.63                          1         161.952      4.98668e-65        -179.983      4.98668e-65        -179.983                1        -174.387
75.665                         1          161.61      4.98668e-65        -179.982      4.98668e-65        -179.982                1        -174.717
75.7                           1         161.268      4.98669e-65        -179.982      4.98669e-65        -179.982                1        -175.048
75.735                         1         160.926       4.9867e-65        -179.981       4.9867e-65        -179.981                1        -175.379
75.77                          1         160.584      4.98671e-65         -179.98      4.98671e-65         -179.98         0.999999         -175.71
75.805                         1         160.242      4.98673e-65        -179.979      4.98673e-65        -179.979         0.999998         -176.04
75.84                          1           159.9        4.887e-65        -179.978        4.887e-65        -179.978         0.999997        -176.371
75.875                         1         159.558      4.88701e-65        -179.977      4.88701e-65        -179.977         0.999996        -176.702
75.91                          1         159.216      4.88703e-65        -179.976      4.88703e-65        -179.976         0.999995        -177.033
75.945                         1         158.874      4.88704e-65        -179.975      4.88704e-65        -179.975         0.999994        -177.363
75.98                          1         158.532      4.88705e-65        -179.974      4.88705e-65        -179.974         0.999992        -177.694
76.015                         1          158.19      4.88706e-65        -179.973      4.88706e-65        -179.973          0.99999        -178.025
76.05                          1         157.848      4.88708e-65        -179.973      4.88708e-65        -179.973         0.999988        -178.355
76.085                         1         157.505      4.88709e-65        -179.972      4.88709e-65        -179.972         0.999985        -178.686
76.12                   0.999999         157.163      4.88711e-65        -179.971      4.88711e-65        -179.971         0.999983        -179.017
76.155                  0.999997         156.821      4.88712e-65         -179.97      4.88712e-65         -179.97         0.999979        -179.348
76.19                   0.999994         156.479      4.88714e-65        -179.969      4.88714e-65        -179.969         0.999976        -179.679
76.225                   0.99999         156.137      4.88715e-65        -179.968      4.88715e-65        -179.968         0.999971          179.99
76.26                   0.999985         155.795      4.88717e-65        -179.967      4.88717e-65        -179.967         0.999966         179.659
76.295                  0.999978         155.452      4.88719e-65        -179.966      4.88719e-65        -179.966          0.99996         179.328
76.33                   0.999969          155.11       4.8872e-65        -179.966       4.8872e-65        -179.966         0.999952         178.997
76.365                  0.999958         154.767      4.88722e-65        -179.965      4.88722e-65        -179.965         0.999941         178.665
76.4                    0.999946         154.424       4.7875e-65        -179.964       4.7875e-65        -179.964         0.999926         178.333
76.435                  0.999937         154.081      4.78752e-65        -179.963      4.78752e-65        -179.963         0.999902             178
76.47                   0.999937         153.737      4.78754e-65        -179.962      4.78754e-65        -179.962         0.999857         177.666
76.505                  0.999947         153.394      4.78756e-65        -179.961      4.78756e-65        -179.961         0.999747         177.328
76.54                   0.999963          153.05      4.78758e-65         -179.96      4.78758e-65         -179.96         0.999283         176.984
76.575                   0.99998         152.708       4.7876e-65        -179.959       4.7876e-65        -179.959         0.998881          176.75
76.61                   0.999993         152.365      4.78762e-65        -179.959      4.78762e-65        -179.959         0.999928         176.393
76.645                         1         152.023      4.78764e-65        -179.958      4.78764e-65        -179.958                1         176.048
76.68                          1         151.681      4.78766e-65        -179.957      4.78766e-65        -179.957          1.00001         175.711
76.715                         1         151.339      4.68794e-65        -179.956      4.68794e-65        -179.956          1.00001         175.376
76.75                          1         150.998                0               0                0               0                1         175.043
76.785                   0.99999         150.658      4.68798e-65        -179.954      4.68798e-65        -179.954         0.999995         174.711
76.82                   0.999974         150.319        4.688e-65        -179.953        4.688e-65        -179.953          0.99999         174.378
76.855                   0.99995         149.984      4.68803e-65        -179.952      4.68803e-65        -179.952         0.999985         174.046
76.89                   0.999918         149.653      4.68805e-65        -179.952      4.68805e-65        -179.952          0.99998         173.713
76.925                   0.99989          149.33      4.58833e-65        -179.951      4.58833e-65        -179.951         0.999974         173.379
76.96                   0.999894         149.016      4.58835e-65         -179.95      4.58835e-65         -179.95         0.999968         173.044
76.995                  0.999944         148.701      4.58837e-65        -179.949      4.58837e-65        -179.949          0.99996         172.706
77.03                   0.999999         148.375                0               0                0               0         0.999948         172.359
77.065                         1         148.034      4.58842e-65        -179.947      4.58842e-65        -179.947          0.99998         171.938
77.1                           1         147.684      4.58844e-65        -179.947      4.58844e-65        -179.947          1.00021         171.846
77.135                         1         147.331      4.48872e-65        -179.946      4.48872e-65        -179.946          1.00003         171.446
77.17                   0.999992         146.979      4.48875e-65        -179.945      4.48875e-65        -179.945          1.00001           171.1
77.205                  0.999988         146.628      4.48877e-65        -179.944      4.48877e-65        -179.944         0.999995         170.762
77.24                   0.999987         146.278       4.4888e-65        -179.943       4.4888e-65        -179.943         0.999989         170.428
77.275                  0.999987         145.931      4.48883e-65        -179.942      4.48883e-65        -179.942         0.999984         170.095
77.31                   0.999988         145.584      4.48885e-65        -179.942      4.48885e-65        -179.942         0.999981         169.762
77.345                  0.999989         145.238      4.48888e-65        -179.941      4.48888e-65        -179.941         0.999979          169.43
77.38                   0.999991         144.892      4.48891e-65         -179.94      4.48891e-65         -179.94         0.999978         169.098
77.415                  0.999992         144.548      4.48894e-65        -179.939      4.48894e-65        -179.939         0.999977         168.766
77.45                   0.999993         144.203      4.48897e-65        -179.938      4.48897e-65        -179.938         0.999976         168.435
77.485                  0.999995         143.859      4.38924e-65        -179.937      4.38924e-65        -179.937         0.999976         168.103
77.52                   0.999996         143.515      4.38927e-65        -179.937      4.38927e-65        -179.937         0.999976         167.772
77.555                  0.999997         143.172       4.3893e-65        -179.936       4.3893e-65        -179.936         0.999977          167.44
77.59                   0.999997         142.828      4.38933e-65        -179.935      4.38933e-65        -179.935         0.999979         167.108
77.625                  0.999998         142.485      4.38936e-65        -179.934      4.38936e-65        -179.934         0.999982         166.777
77.66                   0.999999         142.142      4.38939e-65        -179.933      4.38939e-65        -179.933         0.999986         166.445
77.695                  0.999999         141.798      4.38942e-65        -179.932      4.38942e-65        -179.932         0.999991         166.113
77.73                          1         141.455      4.38945e-65        -179.932      4.38945e-65        -179.932         0.999999          165.78
77.765                         1         141.112      4.38948e-65        -179.931      4.38948e-65        -179.931          1.00001         165.448
77.8                           1         140.769      4.38951e-65         -179.93      4.38951e-65         -179.93          1.00003         165.115
77.835                         1         140.427      4.38954e-65        -179.929      4.38954e-65        -179.929          1.00006         164.781
77.87                          1         140.084      4.38957e-65        -179.928      4.38957e-65        -179.928          1.00011         164.445
77.905                         1         139.741      4.38961e-65        -179.928      4.38961e-65        -179.928          1.00021         164.109
77.94                          1         139.398      4.38964e-65        -179.927      4.38964e-65        -179.927          1.00045         163.771
77.975                         1         139.055      4.38967e-65        -179.926      4.38967e-65        -179.926          1.00099         163.443
78.01                          1         138.712      4.28993e-65        -179.925      4.28993e-65        -179.925          1.00129         163.161
78.045                         1         138.369      4.28997e-65        -179.925      4.28997e-65        -179.925          1.00067         162.855
78.08                          1         138.026      4.29001e-65        -179.924      4.29001e-65        -179.924           1.0003         162.519
78.115                         1         137.683      4.29004e-65        -179.923      4.29004e-65        -179.923          1.00015         162.181
78.15                          1          137.34      4.29008e-65        -179.922      4.29008e-65        -179.922          1.00008         161.845
78.185                         1         136.997      4.29011e-65        -179.921      4.29011e-65        -179.921          1.00004          161.51
78.22                          1         136.654      4.29015e-65        -179.921      4.29015e-65        -179.921          1.00002         161.176
78.255                         1          136.31      4.29018e-65         -179.92      4.29018e-65         -179.92          1.00001         160.843
78.29                          1         135.966      4.29022e-65        -179.919      4.29022e-65        -179.919         0.999998         160.511
78.325                  0.999999         135.622      4.29025e-65        -179.918      4.29025e-65        -179.918         0.999993         160.179
78.36                   0.999998         135.276      4.29029e-65        -179.918      4.29029e-65        -179.918          0.99999         159.847
78.395                  0.999995          134.93      4.29033e-65        -179.917      4.29033e-65        -179.917         0.999988         159.515
78.43                   0.999991         134.581      4.29036e-65        -179.916      4.29036e-65        -179.916         0.999987         159.183
78.465                  0.999977         134.225       4.2904e-65        -179.915       4.2904e-65        -179.915         0.999987         158.852
78.5                     0.99991         133.843      4.29044e-65        -179.914      4.29044e-65        -179.914         0.999987          158.52
78.535                  0.986665         132.978      4.29057e-65        -179.914      4.29057e-65        -179.914         0.999988         158.189
78.57                   0.999888         133.328      4.19073e-65        -179.913      4.19073e-65        -179.913         0.999988         157.857
78.605                  0.999974          132.94      4.19077e-65        -179.912      4.19077e-65        -179.912         0.999989         157.526
78.64                   0.999989         132.583      4.19081e-65        -179.912      4.19081e-65        -179.912         0.999991         157.194
78.675                  0.999994         132.233      4.19085e-65        -179.911      4.19085e-65        -179.911         0.999992         156.863
78.71                   0.999996         131.886      4.19089e-65         -179.91      4.19089e-65         -179.91         0.999994         156.532
78.745                  0.999998         131.541      4.19093e-65        -179.909      4.19093e-65        -179.909         0.999995           156.2
78.78                   0.999998         131.196      4.19097e-65        -179.909      4.19097e-65        -179.909         0.999997         155.869
78.815                  0.999999         130.852      4.19101e-65        -179.908      4.19101e-65        -179.908         0.999999         155.538
78.85                   0.999999         130.509      4.19105e-65        -179.907      4.19105e-65        -179.907                1         155.206
78.885                  0.999999         130.165      4.19109e-65        -179.906      4.19109e-65        -179.906                1         154.875
78.92                   0.999999         129.822      4.19113e-65        -179.906      4.19113e-65        -179.906          1.00001         154.544
78.955                  0.999999         129.479      4.19117e-65        -179.905      4.19117e-65        -179.905          1.00001         154.212
78.99                   0.999999         129.136      4.19121e-65        -179.904      4.19121e-65        -179.904          1.00001         153.881
79.025                  0.999999         128.793      4.19125e-65        -179.904      4.19125e-65        -179.904          1.00001         153.549
79.06                   0.999999          128.45      4.19129e-65        -179.903      4.19129e-65        -179.903          1.00001         153.218
79.095                  0.999999         128.107      4.19133e-65        -179.902      4.19133e-65        -179.902          1.00002         152.886
79.13                          1         127.764      4.09158e-65        -179.902      4.09158e-65        -179.902          1.00002         152.555
79.165                         1         127.421      4.09162e-65        -179.901      4.09162e-65        -179.901          1.00002         152.223
79.2                           1         127.079      4.09167e-65          -179.9      4.09167e-65          -179.9          1.00002         151.891
79.235                         1         126.736      4.09171e-65          -179.9      4.09171e-65          -179.9          1.00002         151.559
79.27                          1         126.393      4.09175e-65        -179.899      4.09175e-65        -179.899          1.00002         151.227
79.305                         1          126.05      4.09179e-65        -179.898      4.09179e-65        -179.898          1.00002         150.895
79.34                          1         125.707      4.09184e-65        -179.897      4.09184e-65        -179.897          1.00001         150.562
79.375                         1         125.365                0               0                0               0                1         150.229
79.41                          1         125.022      4.09192e-65        -179.896      4.09192e-65        -179.896         0.999966         149.895
79.445                         1         124.679      4.09197e-65        -179.895      4.09197e-65        -179.895         0.999881         149.561
79.48                          1         124.336      4.09201e-65        -179.895      4.09201e-65        -179.895         0.999695         149.229
79.515                         1         123.994      4.09206e-65        -179.894      4.09206e-65        -179.894         0.999548         148.911
79.55                          1         123.651       4.0921e-65        -179.894       4.0921e-65        -179.894         0.999671         148.592
79.585                         1         123.308      4.09215e-65        -179.893      4.09215e-65        -179.893         0.999807         148.262
79.62                          1         122.965      3.99238e-65        -179.892      3.99238e-65        -179.892         0.999884          147.93
79.655                         1         122.623      3.99243e-65        -179.892      3.99243e-65        -179.892         0.999928         147.598
79.69                          1          122.28      3.99247e-65        -179.891      3.99247e-65        -179.891         0.999954         147.265
79.725                         1         121.937      3.99252e-65         -179.89      3.99252e-65         -179.89         0.999971         146.933
79.76                          1         121.594      3.99256e-65         -179.89      3.99256e-65         -179.89         0.999982         146.601
79.795                         1         121.251      3.99261e-65        -179.889      3.99261e-65        -179.889         0.999991         146.269
79.83                          1         120.908      3.99265e-65        -179.888      3.99265e-65        -179.888         0.999997         145.938
79.865                         1         120.566       3.9927e-65        -179.888       3.9927e-65        -179.888                1         145.606
79.9                           1         120.223      3.99274e-65        -179.887      3.99274e-65        -179.887                1         145.274
79.935                         1          119.88      3.99279e-65        -179.887      3.99279e-65        -179.887          1.00001         144.943
79.97                          1         119.537      3.99284e-65        -179.886      3.99284e-65        -179.886          1.00001         144.611
80.005                         1         119.194      3.99289e-65        -179.885      3.99289e-65        -179.885          1.00001          144.28
80.04                          1         118.851      3.99293e-65        -179.885      3.99293e-65        -179.885          1.00001         143.948
80.075                         1         118.508      3.89316e-65        -179.884      3.89316e-65        -179.884          1.00001         143.617
80.11                          1         118.165       3.8932e-65        -179.884       3.8932e-65        -179.884          1.00001         143.286
80.145                         1         117.822      3.89325e-65        -179.883      3.89325e-65        -179.883          1.00001         142.954
80.18                          1          117.48       3.8933e-65        -179.882       3.8933e-65        -179.882          1.00001         142.623
80.215                         1         117.137      3.89334e-65        -179.882      3.89334e-65        -179.882                1         142.292
80.25                          1         116.796      3.89339e-65        -179.881      3.89339e-65        -179.881                1          141.96
80.285                  0.999952         116.453      3.89344e-65        -179.881      3.89344e-65        -179.881         0.999998         141.629
80.32                   0.999958         116.107      3.89349e-65         -179.88      3.89349e-65         -179.88         0.999995         141.298
80.355                  0.999976         115.763      3.89354e-65         -179.88      3.89354e-65         -179.88         0.999991         140.967
80.39                   0.999984          115.42      3.89358e-65        -179.879      3.89358e-65        -179.879         0.999986         140.636
80.425                  0.999989         115.077      3.89363e-65        -179.879      3.89363e-65        -179.879         0.999981         140.305
80.46                   0.999992         114.733      3.89368e-65        -179.878      3.89368e-65        -179.878         0.999976         139.974
80.495                  0.999994          114.39      3.79389e-65        -179.877      3.79389e-65        -179.877          0.99997         139.643
80.53                   0.999995         114.047      3.79394e-65        -179.877      3.79394e-65        -179.877         0.999964         139.313
80.565                  0.999997         113.703      3.79399e-65        -179.876      3.79399e-65        -179.876         0.999958         138.982
80.6                    0.999998          113.36      3.79404e-65        -179.876      3.79404e-65        -179.876         0.999954         138.652
80.635                  0.999999         113.016      3.79408e-65        -179.875      3.79408e-65        -179.875         0.999952         138.323
80.67                   0.999999         112.673      3.79413e-65        -179.875      3.79413e-65        -179.875         0.999959         137.994
80.705                         1         112.329      3.79418e-65        -179.874      3.79418e-65        -179.874         0.999987         137.666
80.74                          1         111.985      3.79423e-65        -179.874      3.79423e-65        -179.874          1.00006         137.338
80.775                         1         111.642      3.79428e-65        -179.873      3.79428e-65        -179.873          1.00019         137.007
80.81                          1         111.298      3.79433e-65        -179.873      3.79433e-65        -179.873          1.00029         136.669
80.845                         1         110.954      3.79438e-65        -179.872      3.79438e-65        -179.872          1.00028         136.331
80.88                          1          110.61      3.79443e-65        -179.872      3.79443e-65        -179.872          1.00022         135.996
80.915                         1         110.265      3.79448e-65        -179.871      3.79448e-65        -179.871          1.00016         135.663
80.95                          1         109.921      3.69468e-65        -179.871      3.69468e-65        -179.871          1.00012         135.332
80.985                         1         109.576      3.69472e-65         -179.87      3.69472e-65         -179.87          1.00009         135.001
81.02                          1         109.231      3.69477e-65         -179.87      3.69477e-65         -179.87          1.00007         134.671
81.055                         1         108.886      3.69482e-65        -179.869      3.69482e-65        -179.869          1.00005          134.34
81.09                          1          108.54      3.69487e-65        -179.869      3.69487e-65        -179.869          1.00004          134.01
81.125                         1         108.194      3.69492e-65        -179.868      3.69492e-65        -179.868          1.00003         133.679
81.16                          1         107.847      3.69498e-65        -179.868      3.69498e-65        -179.868          1.00002         133.349
81.195                         1           107.5      3.69503e-65        -179.868      3.69503e-65        -179.868          1.00001         133.019
81.23                          1         107.151      3.69508e-65        -179.867      3.69508e-65        -179.867          1.00001         132.688
81.265                         1           106.8      3.69513e-65        -179.867      3.69513e-65        -179.867                1         132.358
81.3                           1         106.447      3.69518e-65        -179.866      3.69518e-65        -179.866                1         132.028
81.335                         1         106.089      3.59536e-65        -179.866      3.59536e-65        -179.866                1         131.698
81.37                          1         105.724      3.59541e-65        -179.865      3.59541e-65        -179.865         0.999999         131.368
81.405                         1         105.343      3.59547e-65        -179.865      3.59547e-65        -179.865         0.999999         131.037
81.44                          1         104.917      3.59552e-65        -179.864      3.59552e-65        -179.864                1         130.707
81.475                         1          104.26       3.5956e-65        -179.864       3.5956e-65        -179.864                1         130.377
81.51                          1         105.834      3.59549e-65        -179.864      3.59549e-65        -179.864                1         130.047
81.545                         1         104.415      3.49575e-65        -179.863      3.49575e-65        -179.863                1         129.717
81.58                   0.999996          103.94      3.49581e-65        -179.863      3.49581e-65        -179.863                1         129.386
81.615                  0.999991         103.545      3.49586e-65        -179.863      3.49586e-65        -179.863         0.999998         129.056
81.65                   0.999988         103.174      3.49592e-65        -179.862      3.49592e-65        -179.862         0.999995         128.726
81.685                  0.999986         102.814      3.49597e-65        -179.862      3.49597e-65        -179.862          0.99999         128.395
81.72                   0.999983         102.459      3.49602e-65        -179.861      3.49602e-65        -179.861         0.999984         128.064
81.755                  0.999979         102.108      3.49607e-65        -179.861      3.49607e-65        -179.861         0.999976         127.733
81.79                   0.999976         101.758      3.49612e-65        -179.861      3.49612e-65        -179.861         0.999966         127.402
81.825                  0.999972          101.41      3.49617e-65         -179.86      3.49617e-65         -179.86         0.999955          127.07
81.86                   0.999967         101.063      3.39633e-65         -179.86      3.39633e-65         -179.86         0.999945         126.738
81.895                  0.999962         100.718      3.39638e-65        -179.859      3.39638e-65        -179.859         0.999935         126.405