! TOUCHSTONE file generated by CST MICROWAVE STUDIO
! Date and time: Fri Feb 16 17:58:27 2024
! Project name: metal_rotado.cst
! Parameters = {angX=0.25; angY=2}
! Header version: 2018
! Port assignment regex: !\s*Touchstone port\s*([0-9]+)\s*=\s*(CST MWS port|CST DS port)\s*([0-9]+|Zmin|Zmax)\s*\(\"(.*)\"\)(\s*mode\s*([0-9]+))?.*
! Touchstone port assignment:
! Touchstone port 1 = CST MWS port 1 ("")
! Touchstone port 2 = CST MWS port 2 ("")
# GHz S MA R 376.7
75                      0.999527        -178.067        0.0308092         91.9428        0.0308377          91.943         0.999525        -178.052
75.035                  0.999534        -178.096        0.0303489         91.9371        0.0304145         91.9333          0.99953        -178.094
75.07                   0.999541        -178.123        0.0299066         91.9309        0.0300054         91.9233         0.999536        -178.133
75.105                  0.999548        -178.149        0.0294811          91.924        0.0296096         91.9131         0.999542        -178.169
75.14                   0.999554        -178.174        0.0290715         91.9165        0.0292266         91.9027         0.999549        -178.202
75.175                  0.999561        -178.198        0.0286769         91.9086        0.0288558         91.8921         0.999556        -178.233
75.21                   0.999568        -178.221        0.0282966         91.9002        0.0284964         91.8813         0.999564        -178.262
75.245                  0.999575        -178.243        0.0279298         91.8913        0.0281481         91.8703         0.999572        -178.289
75.28                   0.999582        -178.265        0.0275757         91.8821        0.0278104         91.8592          0.99958        -178.314
75.315                  0.999589        -178.285        0.0272337         91.8725        0.0274827         91.8479         0.999587        -178.338
75.35                   0.999595        -178.305        0.0269031         91.8626        0.0271646         91.8364         0.999595         -178.36
75.385                  0.999602        -178.324        0.0265836         91.8523        0.0268557         91.8249         0.999603        -178.382
75.42                   0.999609        -178.342        0.0262744         91.8418        0.0265556         91.8132         0.999611        -178.401
75.455                  0.999615         -178.36         0.025975          91.831        0.0262639         91.8014         0.999618         -178.42
75.49                   0.999622        -178.377        0.0256851           91.82        0.0259803         91.7895         0.999626        -178.438
75.525                  0.999628        -178.393        0.0254042         91.8087        0.0257045         91.7775         0.999633        -178.455
75.56                   0.999634        -178.409        0.0251319         91.7973        0.0254361         91.7654          0.99964        -178.471
75.595                   0.99964        -178.424        0.0248677         91.7856        0.0251748         91.7533         0.999647        -178.486
75.63                   0.999646        -178.439        0.0246114         91.7738        0.0249204         91.7411         0.999654          -178.5
75.665                  0.999652        -178.454        0.0243625         91.7618        0.0246726         91.7288          0.99966        -178.514
75.7                    0.999658        -178.467        0.0241208         91.7497        0.0244311         91.7164         0.999667        -178.527
75.735                  0.999664        -178.481        0.0238859         91.7375        0.0241957          91.704         0.999673         -178.54
75.77                    0.99967        -178.494        0.0236575         91.7252        0.0239662         91.6916         0.999679        -178.552
75.805                  0.999675        -178.507        0.0234355         91.7127        0.0237424         91.6791         0.999685        -178.564
75.84                   0.999681        -178.519        0.0232195         91.7001         0.023524         91.6666         0.999691        -178.575
75.875                  0.999686        -178.531        0.0230092         91.6875        0.0233108         91.6541         0.999697        -178.585
75.91                   0.999692        -178.542        0.0228045         91.6748        0.0231027         91.6415         0.999702        -178.595
75.945                  0.999697        -178.553        0.0226052          91.662        0.0228995          91.629         0.999708        -178.605
75.98                   0.999702        -178.564         0.022411         91.6492         0.022701         91.6164         0.999713        -178.614
76.015                  0.999707        -178.575        0.0222217         91.6363         0.022507         91.6037         0.999718        -178.623
76.05                   0.999712        -178.585        0.0220371         91.6234        0.0223174         91.5911         0.999723        -178.632
76.085                  0.999717        -178.595        0.0218572         91.6104        0.0221321         91.5785         0.999728         -178.64
76.12                   0.999722        -178.605        0.0216816         91.5974        0.0219509         91.5658         0.999733        -178.649
76.155                  0.999726        -178.614        0.0215102         91.5844        0.0217737         91.5532         0.999737        -178.656
76.19                   0.999731        -178.624         0.021343         91.5714        0.0216003         91.5406         0.999742        -178.664
76.225                  0.999736        -178.633        0.0211797         91.5583        0.0214306          91.528         0.999746        -178.671
76.26                    0.99974        -178.641        0.0210202         91.5453        0.0212646         91.5153          0.99975        -178.678
76.295                  0.999744         -178.65        0.0208643         91.5322         0.021102         91.5027         0.999755        -178.685
76.33                   0.999749        -178.658         0.020712         91.5191        0.0209428         91.4901         0.999759        -178.691
76.365                  0.999753        -178.666        0.0205631         91.5061        0.0207868         91.4776         0.999763        -178.698
76.4                    0.999757        -178.674        0.0204176          91.493        0.0206341          91.465         0.999766        -178.704
76.435                  0.999761        -178.682        0.0202752           91.48        0.0204844         91.4525          0.99977         -178.71
76.47                   0.999765        -178.689        0.0201359          91.467        0.0203377         91.4399         0.999774        -178.716
76.505                  0.999769        -178.697        0.0199996          91.454        0.0201939         91.4274         0.999777        -178.721
76.54                   0.999773        -178.704        0.0198662          91.441        0.0200529          91.415         0.999781        -178.727
76.575                  0.999777        -178.711        0.0197356          91.428        0.0199146         91.4025         0.999784        -178.732
76.61                    0.99978        -178.718        0.0196077         91.4151         0.019779         91.3901         0.999788        -178.737
76.645                  0.999784        -178.724        0.0194825         91.4022         0.019646         91.3777         0.999791        -178.742
76.68                   0.999788        -178.731        0.0193598         91.3893        0.0195155         91.3654         0.999794        -178.747
76.715                  0.999791        -178.737        0.0192396         91.3765        0.0193874         91.3531         0.999797        -178.752
76.75                   0.999795        -178.743        0.0191217         91.3636        0.0192616         91.3408           0.9998        -178.756
76.785                  0.999798         -178.75        0.0190062         91.3509        0.0191382         91.3285         0.999803        -178.761
76.82                   0.999801        -178.755        0.0188929         91.3381         0.019017         91.3163         0.999806        -178.765
76.855                  0.999805        -178.761        0.0187819         91.3254         0.018898         91.3041         0.999809        -178.769
76.89                   0.999808        -178.767        0.0186729         91.3128        0.0187811          91.292         0.999811        -178.774
76.925                  0.999811        -178.773        0.0185661         91.3002        0.0186662         91.2799         0.999814        -178.778
76.96                   0.999814        -178.778        0.0184612         91.2876        0.0185534         91.2679         0.999817        -178.782
76.995                  0.999817        -178.783        0.0183582         91.2751        0.0184425         91.2559         0.999819        -178.785
77.03                    0.99982        -178.789        0.0182572         91.2626        0.0183336         91.2439         0.999822        -178.789
77.065                  0.999823        -178.794         0.018158         91.2502        0.0182264          91.232         0.999824        -178.793
77.1                    0.999826        -178.799        0.0180606         91.2378        0.0181211         91.2201         0.999827        -178.796
77.135                  0.999829        -178.804        0.0179649         91.2255        0.0180176         91.2083         0.999829          -178.8
77.17                   0.999832        -178.808         0.017871         91.2132        0.0179158         91.1965         0.999831        -178.803
77.205                  0.999834        -178.813        0.0177786          91.201        0.0178157         91.1848         0.999834        -178.807
77.24                   0.999837        -178.818        0.0176879         91.1888        0.0177172         91.1731         0.999836         -178.81
77.275                   0.99984        -178.822        0.0175988         91.1767        0.0176203         91.1615         0.999838        -178.813
77.31                   0.999842        -178.827        0.0175111         91.1647        0.0175249         91.1499          0.99984        -178.816
77.345                  0.999845        -178.831         0.017425         91.1527        0.0174311         91.1383         0.999842        -178.819
77.38                   0.999847        -178.835        0.0173403         91.1407        0.0173387         91.1269         0.999844        -178.822
77.415                   0.99985         -178.84        0.0172569         91.1288        0.0172478         91.1154         0.999846        -178.825
77.45                   0.999852        -178.844         0.017175         91.1169        0.0171584         91.1041         0.999848        -178.828
77.485                  0.999855        -178.848        0.0170944         91.1052        0.0170703         91.0928          0.99985        -178.831
77.52                   0.999857        -178.852        0.0170151         91.0934        0.0169835         91.0815         0.999852        -178.833
77.555                  0.999859        -178.856        0.0169371         91.0817        0.0168981         91.0703         0.999853        -178.836
77.59                   0.999861        -178.859        0.0168603         91.0701         0.016814         91.0591         0.999855        -178.839
77.625                  0.999864        -178.863        0.0167847         91.0586        0.0167311         91.0481         0.999857        -178.841
77.66                   0.999866        -178.867        0.0167103         91.0471        0.0166495          91.037         0.999859        -178.844
77.695                  0.999868         -178.87        0.0166371         91.0356        0.0165691          91.026          0.99986        -178.846
77.73                    0.99987        -178.874         0.016565         91.0242        0.0164898         91.0151         0.999862        -178.849
77.765                  0.999872        -178.877         0.016494         91.0129        0.0164117         91.0043         0.999864        -178.851
77.8                    0.999874        -178.881         0.016424         91.0016        0.0163348         90.9935         0.999865        -178.853
77.835                  0.999876        -178.884        0.0163551         90.9904        0.0162589         90.9827         0.999867        -178.856
77.87                   0.999878        -178.887        0.0162872         90.9792        0.0161841         90.9721         0.999868        -178.858
77.905                   0.99988        -178.891        0.0162204         90.9681        0.0161104         90.9614          0.99987         -178.86
77.94                   0.999882        -178.894        0.0161545         90.9571        0.0160377         90.9509         0.999871        -178.862
77.975                  0.999884        -178.897        0.0160895         90.9461         0.015966         90.9404         0.999873        -178.865
78.01                   0.999886          -178.9        0.0160255         90.9351        0.0158954           90.93         0.999874        -178.867
78.045                  0.999887        -178.903        0.0159624         90.9243        0.0158256         90.9196         0.999875        -178.869
78.08                   0.999889        -178.906        0.0159002         90.9134        0.0157569         90.9093         0.999877        -178.871
78.115                  0.999891        -178.909        0.0158389         90.9027        0.0156891          90.899         0.999878        -178.873
78.15                   0.999893        -178.912        0.0157784          90.892        0.0156222         90.8889         0.999879        -178.875
78.185                  0.999894        -178.914        0.0157188         90.8813        0.0155562         90.8788         0.999881        -178.877
78.22                   0.999896        -178.917          0.01566         90.8708         0.015491         90.8687         0.999882        -178.878
78.255                  0.999898         -178.92        0.0156019         90.8602        0.0154268         90.8587         0.999883         -178.88
78.29                   0.999899        -178.923        0.0155447         90.8497        0.0153633         90.8488         0.999884        -178.882
78.325                  0.999901        -178.925        0.0154882         90.8393        0.0153007          90.839         0.999885        -178.884
78.36                   0.999902        -178.928        0.0154325          90.829         0.015239         90.8292         0.999887        -178.886
78.395                  0.999904         -178.93        0.0153775         90.8187         0.015178         90.8195         0.999888        -178.888
78.43                   0.999905        -178.933        0.0153232         90.8084        0.0151178         90.8099         0.999889        -178.889
78.465                  0.999907        -178.935        0.0152697         90.7982        0.0150583         90.8003          0.99989        -178.891
78.5                    0.999908        -178.938        0.0152168         90.7881        0.0149996         90.7908         0.999891        -178.893
78.535                  0.999909         -178.94        0.0151646          90.778        0.0149417         90.7814         0.999892        -178.894
78.57                   0.999911        -178.942         0.015113          90.768        0.0148845          90.772         0.999893        -178.896
78.605                  0.999912        -178.945        0.0150621          90.758        0.0148279         90.7627         0.999894        -178.897
78.64                   0.999914        -178.947        0.0150119         90.7481        0.0147721         90.7535         0.999895        -178.899
78.675                  0.999915        -178.949        0.0149622         90.7382         0.014717         90.7444         0.999896        -178.901
78.71                   0.999916        -178.951        0.0149132         90.7284        0.0146625         90.7353         0.999897        -178.902
78.745                  0.999917        -178.953        0.0148648         90.7187        0.0146087         90.7263         0.999898        -178.904
78.78                   0.999919        -178.955         0.014817          90.709        0.0145556         90.7174         0.999899        -178.905
78.815                   0.99992        -178.958        0.0147697         90.6994        0.0145031         90.7086           0.9999        -178.906
78.85                   0.999921         -178.96         0.014723         90.6898        0.0144512         90.6998         0.999901        -178.908
78.885                  0.999922        -178.962        0.0146769         90.6802        0.0143999         90.6911         0.999902        -178.909
78.92                   0.999923        -178.964        0.0146313         90.6707        0.0143493         90.6825         0.999902        -178.911
78.955                  0.999924        -178.966        0.0145862         90.6613        0.0142992         90.6739         0.999903        -178.912
78.99                   0.999925        -178.967        0.0145416         90.6519        0.0142497         90.6655         0.999904        -178.913
79.025                  0.999926        -178.969        0.0144976         90.6426        0.0142008         90.6571         0.999905        -178.915
79.06                   0.999928        -178.971        0.0144541         90.6333        0.0141524         90.6488         0.999906        -178.916
79.095                  0.999929        -178.973         0.014411         90.6241        0.0141046         90.6406         0.999906        -178.917
79.13                    0.99993        -178.975        0.0143685          90.615        0.0140574         90.6324         0.999907        -178.919
79.165                  0.999931        -178.977        0.0143264         90.6058        0.0140107         90.6244         0.999908         -178.92
79.2                    0.999932        -178.978        0.0142848         90.5968        0.0139645         90.6164         0.999909        -178.921
79.235                  0.999932         -178.98        0.0142436         90.5878        0.0139188         90.6085         0.999909        -178.922
79.27                   0.999933        -178.982        0.0142029         90.5788        0.0138737         90.6007          0.99991        -178.924
79.305                  0.999934        -178.983        0.0141626         90.5699         0.013829          90.593         0.999911        -178.925
79.34                   0.999935        -178.985        0.0141228          90.561        0.0137849         90.5854         0.999912        -178.926
79.375                  0.999936        -178.987        0.0140833         90.5522        0.0137412         90.5778         0.999912        -178.927
79.41                   0.999937        -178.988        0.0140443         90.5434         0.013698         90.5703         0.999913        -178.928
79.445                  0.999938         -178.99        0.0140058         90.5347        0.0136553          90.563         0.999914         -178.93
79.48                   0.999939        -178.991        0.0139676          90.526         0.013613         90.5557         0.999914        -178.931
79.515                  0.999939        -178.993        0.0139298         90.5174        0.0135712         90.5485         0.999915        -178.932
79.55                    0.99994        -178.994        0.0138924         90.5089        0.0135299         90.5414         0.999915        -178.933
79.585                  0.999941        -178.996        0.0138553         90.5003         0.013489         90.5343         0.999916        -178.934
79.62                   0.999942        -178.997        0.0138187         90.4919        0.0134485         90.5274         0.999917        -178.935
79.655                  0.999942        -178.998        0.0137824         90.4834        0.0134084         90.5206         0.999917        -178.936
79.69                   0.999943            -179        0.0137465         90.4751        0.0133688         90.5138         0.999918        -178.937
79.725                  0.999944        -179.001        0.0137109         90.4667        0.0133296         90.5072         0.999918        -178.938
79.76                   0.999944        -179.002        0.0136757         90.4584        0.0132908         90.5007         0.999919        -178.939
79.795                  0.999945        -179.004        0.0136408         90.4502        0.0132524         90.4942         0.999919         -178.94
79.83                   0.999946        -179.005        0.0136063          90.442        0.0132144         90.4878          0.99992        -178.941
79.865                  0.999946        -179.006         0.013572         90.4339        0.0131768         90.4816         0.999921        -178.942
79.9                    0.999947        -179.008        0.0135381         90.4258        0.0131396         90.4754         0.999921        -178.943
79.935                  0.999947        -179.009        0.0135046         90.4177        0.0131028         90.4694         0.999922        -178.944
79.97                   0.999948         -179.01        0.0134713         90.4097        0.0130664         90.4634         0.999922        -178.945
80.005                  0.999949        -179.011        0.0134383         90.4018        0.0130303         90.4576         0.999923        -178.946
80.04                   0.999949        -179.012        0.0134057         90.3939        0.0129946         90.4519         0.999923        -178.947
80.075                   0.99995        -179.014        0.0133733          90.386        0.0129592         90.4462         0.999924        -178.948
80.11                    0.99995        -179.015        0.0133413         90.3782        0.0129242         90.4407         0.999924        -178.949
80.145                  0.999951        -179.016        0.0133095         90.3704        0.0128896         90.4353         0.999924         -178.95
80.18                   0.999951        -179.017         0.013278         90.3627        0.0128553           90.43         0.999925        -178.951
80.215                  0.999952        -179.018        0.0132468          90.355        0.0128213         90.4248         0.999925        -178.952
80.25                   0.999952        -179.019        0.0132158         90.3474        0.0127877         90.4197         0.999926        -178.953
80.285                  0.999953         -179.02        0.0131851         90.3398        0.0127544         90.4148         0.999926        -178.954
80.32                   0.999953        -179.021        0.0131547         90.3323        0.0127214         90.4099         0.999927        -178.955
80.355                  0.999953        -179.022        0.0131245         90.3248        0.0126888         90.4052         0.999927        -178.955
80.39                   0.999954        -179.023        0.0130946         90.3173        0.0126565         90.4006         0.999927        -178.956
80.425                  0.999954        -179.024        0.0130649         90.3099        0.0126245         90.3961         0.999928        -178.957
80.46                   0.999954        -179.025        0.0130355         90.3025        0.0125928         90.3917         0.999928        -178.958
80.495                  0.999955        -179.026        0.0130063         90.2952        0.0125614         90.3875         0.999929        -178.959
80.53                   0.999955        -179.027        0.0129773          90.288        0.0125303         90.3834         0.999929         -178.96
80.565                  0.999956        -179.028        0.0129486         90.2807        0.0124996         90.3794         0.999929         -178.96
80.6                    0.999956        -179.029        0.0129201         90.2736        0.0124691         90.3755          0.99993        -178.961
80.635                  0.999956         -179.03        0.0128918         90.2664        0.0124389         90.3718          0.99993        -178.962
80.67                   0.999956         -179.03        0.0128637         90.2594         0.012409         90.3682          0.99993        -178.963
80.705                  0.999957        -179.031        0.0128359         90.2523        0.0123794         90.3647         0.999931        -178.964
80.74                   0.999957        -179.032        0.0128082         90.2453        0.0123501         90.3614         0.999931        -178.964
80.775                  0.999957        -179.033        0.0127808         90.2384         0.012321         90.3582         0.999931        -178.965
80.81                   0.999957        -179.034        0.0127536         90.2315        0.0122923         90.3552         0.999932        -178.966
80.845                  0.999958        -179.034        0.0127265         90.2247        0.0122638         90.3523         0.999932        -178.967
80.88                   0.999958        -179.035        0.0126997         90.2179        0.0122355         90.3495         0.999932        -178.968
80.915                  0.999958        -179.036         0.012673         90.2111        0.0122076         90.3469         0.999933        -178.968
80.95                   0.999958        -179.037        0.0126465         90.2045        0.0121799         90.3445         0.999933        -178.969
80.985                  0.999958        -179.037        0.0126202         90.1978        0.0121525         90.3421         0.999933         -178.97
81.02                   0.999959        -179.038        0.0125941         90.1912        0.0121253           90.34         0.999933        -178.971
81.055                  0.999959        -179.039        0.0125682         90.1847        0.0120984          90.338         0.999934        -178.971
81.09                   0.999959         -179.04        0.0125424         90.1782        0.0120717         90.3362         0.999934        -178.972
81.125                  0.999959         -179.04        0.0125168         90.1718        0.0120453         90.3345         0.999934        -178.973
81.16                   0.999959        -179.041        0.0124913         90.1654        0.0120192          90.333         0.999934        -178.973
81.195                  0.999959        -179.042         0.012466         90.1591        0.0119933         90.3316         0.999935        -178.974
81.23                   0.999959        -179.042        0.0124409         90.1529        0.0119676         90.3305         0.999935        -178.975
81.265                  0.999959        -179.043        0.0124159         90.1467        0.0119422         90.3295         0.999935        -178.975
81.3                    0.999959        -179.043        0.0123911         90.1405         0.011917         90.3286         0.999935        -178.976
81.335                  0.999959        -179.044        0.0123664         90.1345        0.0118921          90.328         0.999936        -178.977
81.37                    0.99996        -179.045        0.0123418         90.1285        0.0118674         90.3275         0.999936        -178.978
81.405                   0.99996        -179.045        0.0123174         90.1225        0.0118429         90.3272         0.999936        -178.978
81.44                    0.99996        -179.046        0.0122931         90.1167        0.0118187         90.3271         0.999936        -178.979
81.475                   0.99996        -179.046        0.0122689         90.1109        0.0117947         90.3272         0.999937         -178.98
81.51                    0.99996        -179.047        0.0122449         90.1051        0.0117709         90.3275         0.999937         -178.98
81.545                   0.99996        -179.047         0.012221         90.0995        0.0117473          90.328         0.999937        -178.981
81.58                    0.99996        -179.048        0.0121972         90.0939         0.011724         90.3287         0.999937        -178.982
81.615                   0.99996        -179.048        0.0121735         90.0884        0.0117009         90.3296         0.999937        -178.982
81.65                    0.99996        -179.049        0.0121499          90.083         0.011678         90.3307         0.999937        -178.983
81.685                  0.999959        -179.049        0.0121264         90.0777        0.0116554          90.332         0.999938        -178.983
81.72                   0.999959         -179.05         0.012103         90.0725        0.0116329         90.3335         0.999938        -178.984
81.755                  0.999959         -179.05        0.0120797         90.0674        0.0116107         90.3352         0.999938        -178.985
81.79                   0.999959         -179.05        0.0120565         90.0624        0.0115887         90.3372         0.999938        -178.985
81.825                  0.999959        -179.051        0.0120334         90.0575        0.0115669         90.3394         0.999938        -178.986
81.86                   0.999959        -179.051        0.0120104         90.0527        0.0115454         90.3418         0.999939        -178.987
81.895                  0.999959        -179.052        0.0119874          90.048         0.011524         90.3445         0.999939        -178.987