! TOUCHSTONE file generated by CST MICROWAVE STUDIO
! Date and time: Wed Feb 14 15:11:46 2024
! Project name: metal_rotado.cst
! Parameters = {angY=1.75}
! Header version: 2018
! Port assignment regex: !\s*Touchstone port\s*([0-9]+)\s*=\s*(CST MWS port|CST DS port)\s*([0-9]+|Zmin|Zmax)\s*\(\"(.*)\"\)(\s*mode\s*([0-9]+))?.*
! Touchstone port assignment:
! Touchstone port 1 = CST MWS port 1 ("")
! Touchstone port 2 = CST MWS port 2 ("")
# GHz S MA R 376.7
75                      0.999997         152.137                0               0                0               0                1        -151.828
75.035                  0.999999         151.783      4.57637e-65        -179.999      4.57637e-65        -179.999                1        -152.163
75.07                          1         151.429      4.57638e-65        -179.997      4.57638e-65        -179.997         0.999999        -152.498
75.105                         1         151.074      4.57638e-65        -179.995      4.57638e-65        -179.995         0.999999        -152.833
75.14                          1          150.72      4.57638e-65        -179.994      4.57638e-65        -179.994         0.999999        -153.167
75.175                         1         150.366      4.57639e-65        -179.992      4.57639e-65        -179.992         0.999999        -153.502
75.21                          1         150.012       4.5764e-65         -179.99       4.5764e-65         -179.99         0.999999        -153.836
75.245                   1.00001         149.657      4.47692e-65        -179.988      4.47692e-65        -179.988         0.999999         -154.17
75.28                    1.00001         149.303      4.47692e-65        -179.987      4.47692e-65        -179.987         0.999999        -154.504
75.315                   1.00001         148.948      4.47693e-65        -179.985      4.47693e-65        -179.985         0.999999        -154.838
75.35                    1.00001         148.594      4.47694e-65        -179.983      4.47694e-65        -179.983         0.999999        -155.172
75.385                   1.00001         148.239      4.47695e-65        -179.981      4.47695e-65        -179.981         0.999999        -155.506
75.42                    1.00001         147.885      4.47697e-65         -179.98      4.47697e-65         -179.98                1        -155.839
75.455                         1          147.53      4.47698e-65        -179.978      4.47698e-65        -179.978                1        -156.173
75.49                          1         147.175                0               0                0               0                1        -156.506
75.525                  0.999994          146.82        4.477e-65        -179.974        4.477e-65        -179.974                1        -156.839
75.56                   0.999985         146.465      4.47702e-65        -179.972      4.47702e-65        -179.972                1        -157.172
75.595                  0.999971          146.11      4.47704e-65        -179.971      4.47704e-65        -179.971                1        -157.505
75.63                   0.999949         145.755      4.47705e-65        -179.969      4.47705e-65        -179.969                1        -157.838
75.665                  0.999921         145.401      4.47707e-65        -179.967      4.47707e-65        -179.967                1         -158.17
75.7                    0.999895         145.048      4.47709e-65        -179.965      4.47709e-65        -179.965                1        -158.503
75.735                  0.999886         144.696      4.47711e-65        -179.964      4.47711e-65        -179.964                1        -158.835
75.77                   0.999899         144.343      4.37764e-65        -179.962      4.37764e-65        -179.962                1        -159.168
75.805                  0.999924          143.99      4.37765e-65         -179.96      4.37765e-65         -179.96                1          -159.5
75.84                   0.999947         143.635      4.37768e-65        -179.958      4.37768e-65        -179.958                1        -159.832
75.875                  0.999966          143.28       4.3777e-65        -179.957       4.3777e-65        -179.957                1        -160.164
75.91                    0.99998         142.925      4.37772e-65        -179.955      4.37772e-65        -179.955                1        -160.496
75.945                  0.999991          142.57      4.37774e-65        -179.953      4.37774e-65        -179.953                1        -160.828
75.98                          1         142.215                0               0                0               0                1         -161.16
76.015                   1.00001          141.86      4.37779e-65         -179.95      4.37779e-65         -179.95                1        -161.491
76.05                    1.00001         141.505      4.37782e-65        -179.948      4.37782e-65        -179.948         0.999999        -161.823
76.085                   1.00002         141.149      4.37785e-65        -179.946      4.37785e-65        -179.946         0.999998        -162.155
76.12                    1.00002         140.794      4.37787e-65        -179.945      4.37787e-65        -179.945         0.999997        -162.486
76.155                   1.00003         140.439       4.3779e-65        -179.943       4.3779e-65        -179.943         0.999995        -162.817
76.19                    1.00004         140.083      4.37793e-65        -179.941      4.37793e-65        -179.941         0.999993        -163.149
76.225                   1.00004         139.728      4.37796e-65        -179.939      4.37796e-65        -179.939         0.999989         -163.48
76.26                    1.00005         139.372      4.27849e-65        -179.938      4.27849e-65        -179.938         0.999985        -163.811
76.295                   1.00006         139.017      4.27852e-65        -179.936      4.27852e-65        -179.936         0.999979        -164.142
76.33                    1.00007         138.661      4.27855e-65        -179.934      4.27855e-65        -179.934         0.999971        -164.472
76.365                   1.00009         138.304      4.27859e-65        -179.932      4.27859e-65        -179.932         0.999959        -164.802
76.4                     1.00012         137.947      4.27862e-65        -179.931      4.27862e-65        -179.931          0.99994        -165.131
76.435                   1.00017         137.586      4.27865e-65        -179.929      4.27865e-65        -179.929         0.999914        -165.457
76.47                          1         137.206                0               0                0               0                1        -165.767
76.505                  0.999584         136.884      4.27873e-65        -179.926      4.27873e-65        -179.926                1        -166.138
76.54                   0.999805         136.534      4.27876e-65        -179.924      4.27876e-65        -179.924                1        -166.473
76.575                  0.999881         136.178       4.2788e-65        -179.922       4.2788e-65        -179.922                1        -166.802
76.61                   0.999917         135.822      4.27883e-65        -179.921      4.27883e-65        -179.921                1        -167.132
76.645                  0.999937         135.466      4.27887e-65        -179.919      4.27887e-65        -179.919                1        -167.463
76.68                   0.999951          135.11      4.27891e-65        -179.917      4.27891e-65        -179.917                1        -167.794
76.715                   0.99996         134.755      4.17944e-65        -179.916      4.17944e-65        -179.916                1        -168.125
76.75                   0.999967         134.399      4.17948e-65        -179.914      4.17948e-65        -179.914                1        -168.457
76.785                  0.999972         134.043      4.17952e-65        -179.912      4.17952e-65        -179.912                1        -168.789
76.82                   0.999977         133.687      4.17956e-65         -179.91      4.17956e-65         -179.91                1        -169.121
76.855                   0.99998         133.331       4.1796e-65        -179.909       4.1796e-65        -179.909         0.999994        -169.453
76.89                   0.999983         132.975      4.17965e-65        -179.907      4.17965e-65        -179.907         0.999975        -169.785
76.925                  0.999985         132.619      4.17969e-65        -179.905      4.17969e-65        -179.905         0.999953        -170.118
76.96                   0.999988         132.263                0               0                0               0         0.999925         -170.45
76.995                  0.999989         131.907      4.17978e-65        -179.902      4.17978e-65        -179.902         0.999891        -170.783
77.03                   0.999991         131.551      4.17983e-65          -179.9      4.17983e-65          -179.9         0.999851        -171.115
77.065                  0.999992         131.195      4.17987e-65        -179.899      4.17987e-65        -179.899         0.999802        -171.447
77.1                    0.999994         130.839      4.17992e-65        -179.897      4.17992e-65        -179.897         0.999746        -171.777
77.135                  0.999995         130.483      4.17997e-65        -179.896      4.17997e-65        -179.896         0.999687        -172.106
77.17                   0.999996         130.127      4.18002e-65        -179.894      4.18002e-65        -179.894         0.999631        -172.432
77.205                  0.999997          129.77      4.18007e-65        -179.892      4.18007e-65        -179.892          0.99959        -172.755
77.24                   0.999998         129.414      4.08059e-65        -179.891      4.08059e-65        -179.891         0.999579        -173.074
77.275                  0.999999         129.058      4.08064e-65        -179.889      4.08064e-65        -179.889         0.999609        -173.389
77.31                   0.999999         128.702      4.08069e-65        -179.888      4.08069e-65        -179.888         0.999679        -173.702
77.345                         1         128.345      4.08074e-65        -179.886      4.08074e-65        -179.886         0.999773        -174.013
77.38                          1         127.989      4.08079e-65        -179.885      4.08079e-65        -179.885         0.999869        -174.325
77.415                         1         127.632      4.08084e-65        -179.883      4.08084e-65        -179.883         0.999948        -174.638
77.45                          1         127.276                0               0                0               0                1        -174.955
77.485                         1          126.92      4.08095e-65         -179.88      4.08095e-65         -179.88                1        -175.275
77.52                          1         126.563        4.081e-65        -179.878        4.081e-65        -179.878                1        -175.597
77.555                         1         126.206      4.08106e-65        -179.877      4.08106e-65        -179.877                1        -175.922
77.59                    1.00001          125.85      4.08111e-65        -179.875      4.08111e-65        -179.875                1        -176.248
77.625                   1.00001         125.493      4.08117e-65        -179.874      4.08117e-65        -179.874                1        -176.576
77.66                    1.00001         125.137      4.08123e-65        -179.872      4.08123e-65        -179.872                1        -176.905
77.695                   1.00001          124.78      4.08128e-65         -179.87      4.08128e-65         -179.87                1        -177.234
77.73                    1.00001         124.423       3.9818e-65        -179.869       3.9818e-65        -179.869                1        -177.563
77.765                   1.00001         124.067      3.98186e-65        -179.867      3.98186e-65        -179.867                1        -177.893
77.8                     1.00002          123.71      3.98191e-65        -179.866      3.98191e-65        -179.866                1        -178.222
77.835                   1.00002         123.354      3.98197e-65        -179.864      3.98197e-65        -179.864                1        -178.552
77.87                    1.00003         122.998      3.98203e-65        -179.863      3.98203e-65        -179.863                1        -178.882
77.905                   1.00004         122.641      3.98209e-65        -179.861      3.98209e-65        -179.861                1        -179.211
77.94                    1.00005         122.286                0               0                0               0                1        -179.541
77.975                   1.00009         121.931      3.98221e-65        -179.858      3.98221e-65        -179.858         0.999999         -179.87
78.01                    1.00019         121.577      3.98227e-65        -179.857      3.98227e-65        -179.857         0.999999           179.8
78.045                    1.0005         121.215      3.98233e-65        -179.855      3.98233e-65        -179.855         0.999999         179.471
78.08                    1.00034         120.831       3.9824e-65        -179.854       3.9824e-65        -179.854         0.999999         179.142
78.115                   1.00009         120.477      3.98247e-65        -179.852      3.98247e-65        -179.852         0.999999         178.812
78.15                    1.00003         120.124      3.98253e-65        -179.851      3.98253e-65        -179.851         0.999999         178.483
78.185                   1.00001         119.769       3.9826e-65        -179.849       3.9826e-65        -179.849         0.999999         178.154
78.22                    1.00001         119.413      3.88309e-65        -179.848      3.88309e-65        -179.848         0.999999         177.825
78.255                         1         119.057      3.88316e-65        -179.846      3.88316e-65        -179.846         0.999999         177.496
78.29                          1           118.7      3.88322e-65        -179.845      3.88322e-65        -179.845         0.999999         177.168
78.325                  0.999999         118.343      3.88329e-65        -179.843      3.88329e-65        -179.843                1         176.839
78.36                   0.999998         117.985      3.88336e-65        -179.842      3.88336e-65        -179.842                1          176.51
78.395                  0.999998         117.628      3.88342e-65         -179.84      3.88342e-65         -179.84                1         176.181
78.43                   0.999998          117.27                0               0                0               0                1         175.853
78.465                  0.999998         116.913      3.88356e-65        -179.838      3.88356e-65        -179.838                1         175.524
78.5                    0.999998         116.555      3.88363e-65        -179.836      3.88363e-65        -179.836                1         175.195
78.535                  0.999998         116.197       3.8837e-65        -179.835       3.8837e-65        -179.835                1         174.867
78.57                   0.999998         115.839      3.88377e-65        -179.833      3.88377e-65        -179.833                1         174.538
78.605                  0.999998         115.481      3.88384e-65        -179.832      3.88384e-65        -179.832                1          174.21
78.64                   0.999998         115.123      3.88391e-65        -179.831      3.88391e-65        -179.831                1         173.881
78.675                  0.999998         114.765      3.88398e-65        -179.829      3.88398e-65        -179.829                1         173.553
78.71                   0.999998         114.407      3.78446e-65        -179.828      3.78446e-65        -179.828                1         173.224
78.745                  0.999998         114.048      3.78453e-65        -179.826      3.78453e-65        -179.826                1         172.896
78.78                   0.999998          113.69       3.7846e-65        -179.825       3.7846e-65        -179.825                1         172.567
78.815                  0.999998         113.332      3.78467e-65        -179.824      3.78467e-65        -179.824                1         172.239
78.85                   0.999999         112.973      3.78475e-65        -179.822      3.78475e-65        -179.822                1          171.91
78.885                  0.999999         112.615      3.78482e-65        -179.821      3.78482e-65        -179.821                1         171.582
78.92                   0.999999         112.256                0               0                0               0                1         171.254
78.955                  0.999999         111.898      3.78497e-65        -179.818      3.78497e-65        -179.818                1         170.925
78.99                   0.999999         111.539      3.78504e-65        -179.817      3.78504e-65        -179.817                1         170.597
79.025                  0.999999          111.18      3.78512e-65        -179.816      3.78512e-65        -179.816                1         170.269
79.06                   0.999999         110.822      3.78519e-65        -179.814      3.78519e-65        -179.814                1          169.94
79.095                  0.999999         110.463      3.78527e-65        -179.813      3.78527e-65        -179.813                1         169.612
79.13                   0.999999         110.104      3.78535e-65        -179.812      3.78535e-65        -179.812                1         169.284
79.165                  0.999999         109.745      3.78542e-65         -179.81      3.78542e-65         -179.81         0.999999         168.955
79.2                    0.999999         109.386       3.7855e-65        -179.809       3.7855e-65        -179.809         0.999999         168.627
79.235                  0.999999         109.027      3.68596e-65        -179.808      3.68596e-65        -179.808         0.999999         168.298
79.27                   0.999999         108.668      3.68604e-65        -179.806      3.68604e-65        -179.806         0.999999          167.97
79.305                  0.999999         108.309      3.68611e-65        -179.805      3.68611e-65        -179.805         0.999999         167.642
79.34                   0.999999         107.951      3.68619e-65        -179.804      3.68619e-65        -179.804         0.999999         167.313
79.375                  0.999999         107.592      3.68627e-65        -179.803      3.68627e-65        -179.803         0.999999         166.985
79.41                   0.999999         107.233      3.68635e-65        -179.801      3.68635e-65        -179.801                1         166.657
79.445                  0.999999         106.875      3.68643e-65          -179.8      3.68643e-65          -179.8                1         166.328
79.48                   0.999999         106.517      3.68651e-65        -179.799      3.68651e-65        -179.799                1             166
79.515                  0.999998          106.16      3.68658e-65        -179.798      3.68658e-65        -179.798                1         165.672
79.55                   0.999997         105.805      3.68666e-65        -179.797      3.68666e-65        -179.797                1         165.343
79.585                  0.999993         105.458      3.68674e-65        -179.795      3.68674e-65        -179.795                1         165.015
79.62                   0.999921         105.179      3.68681e-65        -179.794      3.68681e-65        -179.794                1         164.686
79.655                  0.999981         104.644      3.68692e-65        -179.793      3.68692e-65        -179.793                1         164.358
79.69                   0.999998         104.323        3.687e-65        -179.792        3.687e-65        -179.792                1         164.029
79.725                         1         103.972      3.68708e-65        -179.791      3.68708e-65        -179.791                1         163.701
79.76                          1         103.616      3.68716e-65        -179.789      3.68716e-65        -179.789                1         163.373
79.795                         1         103.258      3.68725e-65        -179.788      3.68725e-65        -179.788                1         163.044
79.83                          1         102.899      3.58767e-65        -179.787      3.58767e-65        -179.787                1         162.716
79.865                         1          102.54      3.58776e-65        -179.786      3.58776e-65        -179.786                1         162.387
79.9                           1          102.18      3.58784e-65        -179.785      3.58784e-65        -179.785                1         162.059
79.935                         1          101.82      3.58792e-65        -179.784      3.58792e-65        -179.784                1          161.73
79.97                          1          101.46        3.588e-65        -179.782        3.588e-65        -179.782                1         161.402
80.005                         1           101.1      3.58809e-65        -179.781      3.58809e-65        -179.781                1         161.073
80.04                          1         100.739      3.58817e-65         -179.78      3.58817e-65         -179.78                1         160.745
80.075                         1         100.379      3.58826e-65        -179.779      3.58826e-65        -179.779                1         160.417
80.11                          1         100.018      3.58834e-65        -179.778      3.58834e-65        -179.778                1         160.093
80.145                         1          99.657      3.58843e-65        -179.777      3.58843e-65        -179.777          0.99981         159.762
80.18                          1          99.296      3.58852e-65        -179.776      3.58852e-65        -179.776         0.999926          159.43
80.215                         1          98.935       3.5886e-65        -179.775       3.5886e-65        -179.775         0.999955         159.101
80.25                          1         98.5738      3.58869e-65        -179.774      3.58869e-65        -179.774         0.999968         158.772
80.285                         1         98.2125      3.58878e-65        -179.773      3.58878e-65        -179.773         0.999975         158.443
80.32                          1         97.8512      3.58886e-65        -179.772      3.58886e-65        -179.772          0.99998         158.115
80.355                         1         97.4897      3.58895e-65        -179.771      3.58895e-65        -179.771         0.999983         157.786
80.39                          1         97.1282      3.58904e-65         -179.77      3.58904e-65         -179.77         0.999986         157.457
80.425                         1         96.7666      3.58913e-65        -179.769      3.58913e-65        -179.769         0.999988         157.129
80.46                          1         96.4049      3.48952e-65        -179.768      3.48952e-65        -179.768          0.99999           156.8
80.495                         1         96.0431      3.48961e-65        -179.767      3.48961e-65        -179.767         0.999991         156.471
80.53                          1         95.6812      3.48969e-65        -179.766      3.48969e-65        -179.766         0.999993         156.142
80.565                         1         95.3192      3.48978e-65        -179.765      3.48978e-65        -179.765         0.999994         155.813
80.6                           1         94.9572      3.48987e-65        -179.764      3.48987e-65        -179.764         0.999996         155.485
80.635                         1          94.595      3.48996e-65        -179.763      3.48996e-65        -179.763         0.999997         155.156
80.67                          1         94.2328      3.49005e-65        -179.762      3.49005e-65        -179.762         0.999998         154.827
80.705                         1         93.8705      3.49014e-65        -179.761      3.49014e-65        -179.761         0.999999         154.498
80.74                          1         93.5081      3.49023e-65         -179.76      3.49023e-65         -179.76                1         154.169
80.775                         1         93.1457      3.49032e-65        -179.759      3.49032e-65        -179.759                1          153.84
80.81                          1         92.7832      3.49041e-65        -179.758      3.49041e-65        -179.758                1         153.511
80.845                         1         92.4206       3.4905e-65        -179.757       3.4905e-65        -179.757                1         153.182
80.88                          1         92.0579      3.49059e-65        -179.756      3.49059e-65        -179.756                1         152.854
80.915                         1         91.6951      3.39095e-65        -179.755      3.39095e-65        -179.755                1         152.525
80.95                          1         91.3323      3.39104e-65        -179.755      3.39104e-65        -179.755                1         152.196
80.985                         1         90.9693      3.39113e-65        -179.754      3.39113e-65        -179.754                1         151.867
81.02                    1.00001         90.6062      3.39122e-65        -179.753      3.39122e-65        -179.753                1         151.539
81.055                   1.00001          90.243      3.39131e-65        -179.752      3.39131e-65        -179.752         0.999997         151.211
81.09                    1.00001         89.8796       3.3914e-65        -179.751       3.3914e-65        -179.751          0.99999         150.883
81.125                   1.00002          89.516      3.39149e-65         -179.75      3.39149e-65         -179.75         0.999975         150.556
81.16                    1.00002          89.152      3.39158e-65         -179.75      3.39158e-65         -179.75         0.999938         150.231
81.195                   1.00002         88.7878      3.29192e-65        -179.749      3.29192e-65        -179.749         0.999816          149.91
81.23                    1.00002         88.4232      3.29201e-65        -179.748      3.29201e-65        -179.748         0.999137         149.585
81.265                   1.00002         88.0585       3.2921e-65        -179.747       3.2921e-65        -179.747         0.999523         149.189
81.3                     1.00002         87.6936      3.29219e-65        -179.746      3.29219e-65        -179.746         0.999931         148.874
81.335                   1.00002         87.3287      1.33678e-77    -7.29807e-11      1.33678e-77    -7.29807e-11                1         148.552
81.37                    1.00002         86.9637      3.29237e-65        -179.745      3.29237e-65        -179.745                1         148.227
81.405                   1.00001         86.5987      3.29246e-65        -179.744      3.29246e-65        -179.744                1         147.899
81.44                    1.00001         86.2337      3.29255e-65        -179.743      3.29255e-65        -179.743                1         147.571
81.475                   1.00001         85.8687      3.29264e-65        -179.742      3.29264e-65        -179.742                1         147.242
81.51                    1.00001         85.5036      3.19295e-65        -179.742      3.19295e-65        -179.742                1         146.913
81.545                   1.00001         85.1384      3.19304e-65        -179.741      3.19304e-65        -179.741                1         146.584
81.58                    1.00001         84.7732      3.19313e-65         -179.74      3.19313e-65         -179.74                1         146.254
81.615                         1         84.4078      3.19322e-65         -179.74      3.19322e-65         -179.74                1         145.925
81.65                          1         84.0424      3.19331e-65        -179.739      3.19331e-65        -179.739         0.999997         145.596
81.685                         1         83.6769      3.19339e-65        -179.738      3.19339e-65        -179.738         0.999988         145.267
81.72                          1         83.3112      3.19348e-65        -179.738      3.19348e-65        -179.738         0.999982         144.938
81.755                         1         82.9455      3.19357e-65        -179.737      3.19357e-65        -179.737         0.999978         144.609
81.79                          1         82.5796      3.09386e-65        -179.736      3.09386e-65        -179.736         0.999978          144.28
81.825                         1         82.2136      3.09395e-65        -179.736      3.09395e-65        -179.736          0.99998         143.951
81.86                   0.999999         81.8474      3.09404e-65        -179.735      3.09404e-65        -179.735         0.999985         143.622
81.895                  0.999999         81.4812      3.09413e-65        -179.734      3.09413e-65        -179.734         0.999991         143.292