! TOUCHSTONE file generated by CST MICROWAVE STUDIO
! Date and time: Wed Feb 14 15:11:42 2024
! Project name: metal_rotado.cst
! Parameters = {angY=1.25}
! Header version: 2018
! Port assignment regex: !\s*Touchstone port\s*([0-9]+)\s*=\s*(CST MWS port|CST DS port)\s*([0-9]+|Zmin|Zmax)\s*\(\"(.*)\"\)(\s*mode\s*([0-9]+))?.*
! Touchstone port assignment:
! Touchstone port 1 = CST MWS port 1 ("")
! Touchstone port 2 = CST MWS port 2 ("")
# GHz S MA R 376.7
75                             1         160.065                0               0                0               0                1        -160.335
75.035                         1         159.718      5.57725e-65        -179.998      5.57725e-65        -179.998         0.999954        -160.512
75.07                          1         159.373      5.47766e-65        -179.997      5.47766e-65        -179.997         0.999989        -160.836
75.105                         1         159.033                0               0                0               0                1        -161.166
75.14                    1.00003         158.643      5.47767e-65        -179.994      5.47767e-65        -179.994                1        -161.498
75.175                   1.00001          158.32      5.47767e-65        -179.993      5.47767e-65        -179.993                1         -161.83
75.21                          1         157.975      5.47768e-65        -179.991      5.47768e-65        -179.991                1        -162.162
75.245                         1         157.629      5.47769e-65         -179.99      5.47769e-65         -179.99                1        -162.494
75.28                          1         157.283       5.3781e-65        -179.989       5.3781e-65        -179.989                1        -162.827
75.315                         1         156.936      5.37811e-65        -179.987      5.37811e-65        -179.987                1        -163.159
75.35                          1         156.589      5.37811e-65        -179.986      5.37811e-65        -179.986                1        -163.491
75.385                         1         156.242      5.37812e-65        -179.985      5.37812e-65        -179.985                1        -163.822
75.42                          1         155.895      5.37813e-65        -179.983      5.37813e-65        -179.983                1        -164.154
75.455                         1         155.548      5.37814e-65        -179.982      5.37814e-65        -179.982         0.999999        -164.485
75.49                   0.999999           155.2      5.37816e-65         -179.98      5.37816e-65         -179.98         0.999999        -164.817
75.525                  0.999999         154.853      5.37817e-65        -179.979      5.37817e-65        -179.979         0.999998        -165.148
75.56                   0.999999         154.506      5.37818e-65        -179.978      5.37818e-65        -179.978         0.999998        -165.479
75.595                  0.999999         154.159       5.3782e-65        -179.976       5.3782e-65        -179.976         0.999998         -165.81
75.63                   0.999999         153.811      5.27861e-65        -179.975      5.27861e-65        -179.975         0.999998        -166.141
75.665                  0.999999         153.464      5.27863e-65        -179.974      5.27863e-65        -179.974         0.999998        -166.472
75.7                    0.999998         153.117      5.27864e-65        -179.972      5.27864e-65        -179.972         0.999999        -166.802
75.735                  0.999998         152.769      5.27866e-65        -179.971      5.27866e-65        -179.971         0.999999        -167.133
75.77                   0.999998         152.422      5.27868e-65        -179.969      5.27868e-65        -179.969         0.999999        -167.463
75.805                  0.999998         152.074                0               0                0               0                1        -167.793
75.84                   0.999998         151.727      5.27872e-65        -179.967      5.27872e-65        -179.967                1        -168.124
75.875                  0.999998         151.379      5.27874e-65        -179.965      5.27874e-65        -179.965                1        -168.454
75.91                   0.999998         151.032      5.27876e-65        -179.964      5.27876e-65        -179.964                1        -168.784
75.945                  0.999998         150.684      5.27878e-65        -179.963      5.27878e-65        -179.963                1        -169.114
75.98                   0.999998         150.337       5.2788e-65        -179.961       5.2788e-65        -179.961                1        -169.443
76.015                  0.999999         149.989      5.17922e-65         -179.96      5.17922e-65         -179.96                1        -169.773
76.05                   0.999999         149.642      5.17924e-65        -179.959      5.17924e-65        -179.959                1        -170.103
76.085                  0.999999         149.294      5.17927e-65        -179.957      5.17927e-65        -179.957                1        -170.432
76.12                   0.999999         148.946      5.17929e-65        -179.956      5.17929e-65        -179.956                1        -170.761
76.155                  0.999999         148.599      5.17932e-65        -179.955      5.17932e-65        -179.955                1         -171.09
76.19                   0.999999         148.251      5.17934e-65        -179.953      5.17934e-65        -179.953                1        -171.419
76.225                  0.999999         147.903      5.17937e-65        -179.952      5.17937e-65        -179.952         0.999985        -171.745
76.26                          1         147.555       5.1794e-65         -179.95       5.1794e-65         -179.95         0.999756         -172.07
76.295                         1         147.208      5.17943e-65        -179.949      5.17943e-65        -179.949         0.999853        -172.419
76.33                          1          146.86      5.17946e-65        -179.948      5.17946e-65        -179.948         0.999952        -172.746
76.365                         1         146.512      5.17948e-65        -179.946      5.17948e-65        -179.946         0.999976        -173.074
76.4                           1         146.164      5.17951e-65        -179.945      5.17951e-65        -179.945         0.999986        -173.403
76.435                         1         145.815      5.07994e-65        -179.944      5.07994e-65        -179.944         0.999991        -173.732
76.47                          1         145.467      5.07997e-65        -179.942      5.07997e-65        -179.942         0.999994        -174.061
76.505                         1         145.119         5.08e-65        -179.941         5.08e-65        -179.941         0.999996         -174.39
76.54                          1          144.77      5.08003e-65         -179.94      5.08003e-65         -179.94         0.999998         -174.72
76.575                         1         144.421      5.08007e-65        -179.938      5.08007e-65        -179.938         0.999999        -175.049
76.61                   0.999999         144.071                0               0                0               0                1        -175.379
76.645                  0.999997         143.721      5.08014e-65        -179.936      5.08014e-65        -179.936                1        -175.708
76.68                   0.999993         143.369      5.08017e-65        -179.934      5.08017e-65        -179.934                1        -176.038
76.715                  0.999981         143.015      5.08021e-65        -179.933      5.08021e-65        -179.933                1        -176.368
76.75                   0.999948         142.656      5.08025e-65        -179.932      5.08025e-65        -179.932                1        -176.698
76.785                  0.999791         142.278      5.08029e-65         -179.93      5.08029e-65         -179.93                1        -177.029
76.82                   0.996475          141.83      5.08037e-65        -179.929      5.08037e-65        -179.929                1         -177.36
76.855                  0.999427         141.746      4.98074e-65        -179.928      4.98074e-65        -179.928                1        -177.692
76.89                   0.999871         141.349      4.98078e-65        -179.927      4.98078e-65        -179.927                1        -178.025
76.925                  0.999947         140.985      4.98082e-65        -179.925      4.98082e-65        -179.925                1         -178.36
76.96                   0.999974         140.629      4.98086e-65        -179.924      4.98086e-65        -179.924                1        -178.699
76.995                  0.999988         140.277       4.9809e-65        -179.923       4.9809e-65        -179.923                1        -179.046
77.03                   0.999996         139.926      4.98094e-65        -179.921      4.98094e-65        -179.921                1        -179.417
77.065                         1         139.575      4.98098e-65         -179.92      4.98098e-65         -179.92         0.999997        -179.959
77.1                     1.00001         139.226       4.8814e-65         -179.92       4.8814e-65         -179.92                1        -179.653
77.135                   1.00001         138.876      4.88145e-65        -179.918      4.88145e-65        -179.918                1         179.809
77.17                          1         138.525      4.88149e-65        -179.916      4.88149e-65        -179.916                1         179.438
77.205                  0.999956         138.176      4.88153e-65        -179.915      4.88153e-65        -179.915                1         179.091
77.24                   0.999923          137.83      4.88158e-65        -179.914      4.88158e-65        -179.914                1         178.752
77.275                  0.999939         137.483      4.88162e-65        -179.913      4.88162e-65        -179.913                1         178.417
77.31                   0.999956         137.135      4.78204e-65        -179.911      4.78204e-65        -179.911                1         178.084
77.345                  0.999967         136.787      4.78209e-65         -179.91      4.78209e-65         -179.91                1         177.753
77.38                   0.999975         136.439      4.78213e-65        -179.909      4.78213e-65        -179.909                1         177.422
77.415                   0.99998         136.091      4.78218e-65        -179.908      4.78218e-65        -179.908                1         177.091
77.45                   0.999984         135.742      4.78223e-65        -179.906      4.78223e-65        -179.906         0.999999         176.761
77.485                  0.999987         135.394      4.78227e-65        -179.905      4.78227e-65        -179.905         0.999999         176.431
77.52                    0.99999         135.046      4.78232e-65        -179.904      4.78232e-65        -179.904         0.999998         176.101
77.555                  0.999992         134.697      4.78237e-65        -179.903      4.78237e-65        -179.903         0.999998         175.772
77.59                   0.999994         134.349      4.78242e-65        -179.901      4.78242e-65        -179.901         0.999997         175.442
77.625                  0.999996         134.001      4.78247e-65          -179.9      4.78247e-65          -179.9         0.999997         175.113
77.66                   0.999998         133.653      4.78252e-65        -179.899      4.78252e-65        -179.899         0.999996         174.784
77.695                         1         133.304      4.78257e-65        -179.898      4.78257e-65        -179.898         0.999996         174.454
77.73                          1         132.956      4.68299e-65        -179.896      4.68299e-65        -179.896         0.999995         174.125
77.765                         1         132.608      4.68304e-65        -179.895      4.68304e-65        -179.895         0.999995         173.796
77.8                           1         132.259      4.68309e-65        -179.894      4.68309e-65        -179.894         0.999994         173.467
77.835                   1.00001         131.911      4.68314e-65        -179.893      4.68314e-65        -179.893         0.999994         173.138
77.87                    1.00001         131.563       4.6832e-65        -179.891       4.6832e-65        -179.891         0.999995         172.809
77.905                   1.00001         131.215      4.68325e-65         -179.89      4.68325e-65         -179.89         0.999996         172.479
77.94                    1.00001         130.867      4.68331e-65        -179.889      4.68331e-65        -179.889         0.999999          172.15
77.975                   1.00001         130.518      4.68336e-65        -179.888      4.68336e-65        -179.888                1         171.821
78.01                    1.00001          130.17      4.68342e-65        -179.887      4.68342e-65        -179.887                1         171.491
78.045                   1.00001         129.822      4.68347e-65        -179.886      4.68347e-65        -179.886                1         171.162
78.08                    1.00002         129.474      4.68353e-65        -179.884      4.68353e-65        -179.884                1         170.835
78.115                   1.00002         129.127      4.68359e-65        -179.883      4.68359e-65        -179.883                1         170.509
78.15                    1.00001         128.779      4.68364e-65        -179.882      4.68364e-65        -179.882                1         170.181
78.185                   1.00001         128.432      4.58405e-65        -179.881      4.58405e-65        -179.881                1         169.852
78.22                   0.999986         128.086      4.58411e-65         -179.88      4.58411e-65         -179.88                1         169.523
78.255                  0.999927          127.74      4.58416e-65        -179.878      4.58416e-65        -179.878                1         169.194
78.29                   0.999787         127.392      4.58422e-65        -179.877      4.58422e-65        -179.877                1         168.865
78.325                   0.99968         127.034      4.58429e-65        -179.876      4.58429e-65        -179.876                1         168.536
78.36                   0.999759         126.677      4.58435e-65        -179.875      4.58435e-65        -179.875                1         168.207
78.395                  0.999845         126.327                0               0                0               0                1         167.878
78.43                   0.999896         125.979      4.58447e-65        -179.873      4.58447e-65        -179.873         0.999999         167.549
78.465                  0.999926         125.631      4.58453e-65        -179.872      4.58453e-65        -179.872         0.999998          167.22
78.5                    0.999945         125.282      4.58459e-65         -179.87      4.58459e-65         -179.87         0.999997         166.891
78.535                  0.999958         124.934      4.58465e-65        -179.869      4.58465e-65        -179.869         0.999996         166.562
78.57                   0.999967         124.586      4.58472e-65        -179.868      4.58472e-65        -179.868         0.999996         166.234
78.605                  0.999974         124.237      4.58478e-65        -179.867      4.58478e-65        -179.867         0.999995         165.905
78.64                    0.99998         123.889      4.48517e-65        -179.866      4.48517e-65        -179.866         0.999995         165.576
78.675                  0.999984          123.54      4.48524e-65        -179.865      4.48524e-65        -179.865         0.999995         165.247
78.71                   0.999988         123.191       4.4853e-65        -179.864       4.4853e-65        -179.864         0.999995         164.918
78.745                  0.999992         122.843      4.48537e-65        -179.863      4.48537e-65        -179.863         0.999995         164.589
78.78                   0.999995         122.494      4.48543e-65        -179.862      4.48543e-65        -179.862         0.999995          164.26
78.815                  0.999998         122.145       4.4855e-65         -179.86       4.4855e-65         -179.86         0.999995         163.931
78.85                          1         121.796      4.48556e-65        -179.859      4.48556e-65        -179.859         0.999995         163.603
78.885                         1         121.447      4.48563e-65        -179.858      4.48563e-65        -179.858         0.999996         163.274
78.92                    1.00001         121.098      4.48569e-65        -179.857      4.48569e-65        -179.857         0.999996         162.945
78.955                   1.00001         120.749      4.48576e-65        -179.856      4.48576e-65        -179.856         0.999997         162.616
78.99                    1.00001           120.4      4.48583e-65        -179.855      4.48583e-65        -179.855         0.999997         162.288
79.025                   1.00002         120.052       4.4859e-65        -179.854       4.4859e-65        -179.854         0.999998         161.959
79.06                    1.00002         119.703      4.48597e-65        -179.853      4.48597e-65        -179.853         0.999999          161.63
79.095                   1.00002         119.354      4.38635e-65        -179.852      4.38635e-65        -179.852                1         161.302
79.13                    1.00003         119.005      4.38642e-65        -179.851      4.38642e-65        -179.851                1         160.973
79.165                   1.00003         118.656      4.38648e-65         -179.85      4.38648e-65         -179.85                1         160.645
79.2                     1.00004         118.307      4.38655e-65        -179.849      4.38655e-65        -179.849                1         160.317
79.235                   1.00006         117.959      4.38662e-65        -179.848      4.38662e-65        -179.848                1          159.99
79.27                    1.00009         117.612      4.38669e-65        -179.847      4.38669e-65        -179.847                1         159.663
79.305                    1.0002          117.27      4.38676e-65        -179.846      4.38676e-65        -179.846         0.999996         159.337
79.34                    0.99968         116.802      4.38685e-65        -179.845      4.38685e-65        -179.845         0.999976         159.015
79.375                  0.999881         116.546      4.38691e-65        -179.844      4.38691e-65        -179.844          0.99989         158.699
79.41                   0.999938         116.202      4.38698e-65        -179.843      4.38698e-65        -179.843         0.999208         158.401
79.445                   0.99996         115.854      4.38707e-65        -179.842      4.38707e-65        -179.842         0.998678         157.953
79.48                   0.999972         115.506      4.38713e-65        -179.841      4.38713e-65        -179.841         0.999688         157.639
79.515                   0.99998         115.157      4.28749e-65         -179.84      4.28749e-65         -179.84         0.999863         157.322
79.55                   0.999986         114.808      4.28756e-65        -179.839      4.28756e-65        -179.839         0.999923         156.999
79.585                   0.99999         114.458      4.28764e-65        -179.838      4.28764e-65        -179.838         0.999952         156.674
79.62                   0.999993         114.109      4.28771e-65        -179.837      4.28771e-65        -179.837         0.999969         156.347
79.655                  0.999996         113.759      4.28778e-65        -179.836      4.28778e-65        -179.836         0.999981         156.019
79.69                   0.999998          113.41      4.28786e-65        -179.835      4.28786e-65        -179.835          0.99999         155.691
79.725                         1          113.06      4.28793e-65        -179.834      4.28793e-65        -179.834         0.999998         155.363
79.76                          1          112.71        4.288e-65        -179.833        4.288e-65        -179.833                1         155.034
79.795                         1         112.361      4.28808e-65        -179.832      4.28808e-65        -179.832                1         154.706
79.83                          1         112.011      4.28816e-65        -179.831      4.28816e-65        -179.831                1         154.377
79.865                         1         111.661      4.28823e-65         -179.83      4.28823e-65         -179.83                1         154.049
79.9                     1.00001         111.311      4.28831e-65        -179.829      4.28831e-65        -179.829                1          153.72
79.935                   1.00001         110.961      4.28838e-65        -179.828      4.28838e-65        -179.828                1         153.391
79.97                    1.00001         110.611      4.18873e-65        -179.828      4.18873e-65        -179.828                1         153.063
80.005                   1.00001         110.261      4.18881e-65        -179.827      4.18881e-65        -179.827                1         152.734
80.04                    1.00001         109.911      4.18888e-65        -179.826      4.18888e-65        -179.826                1         152.405
80.075                   1.00001         109.561      4.18896e-65        -179.825      4.18896e-65        -179.825                1         152.076
80.11                    1.00001         109.211      4.18904e-65        -179.824      4.18904e-65        -179.824                1         151.747
80.145                   1.00001          108.86      4.18911e-65        -179.823      4.18911e-65        -179.823                1         151.418
80.18                    1.00001          108.51                0               0                0               0                1         151.089
80.215                   1.00001          108.16      4.18927e-65        -179.821      4.18927e-65        -179.821         0.999992          150.76
80.25                    1.00001          107.81      4.18935e-65        -179.821      4.18935e-65        -179.821         0.999986          150.43
80.285                   1.00001         107.459      4.18943e-65         -179.82      4.18943e-65         -179.82         0.999981         150.101
80.32                    1.00001         107.109      4.18951e-65        -179.819      4.18951e-65        -179.819         0.999977         149.771
80.355                   1.00001         106.758      4.18958e-65        -179.818      4.18958e-65        -179.818         0.999975         149.441
80.39                    1.00001         106.408      4.18967e-65        -179.817      4.18967e-65        -179.817         0.999974         149.111
80.425                   1.00001         106.057      4.08999e-65        -179.816      4.08999e-65        -179.816         0.999975         148.782
80.46                    1.00001         105.706      4.09007e-65        -179.816      4.09007e-65        -179.816         0.999977         148.452
80.495                   1.00001         105.356      4.09015e-65        -179.815      4.09015e-65        -179.815         0.999979         148.122
80.53                          1         105.005      4.09023e-65        -179.814      4.09023e-65        -179.814         0.999983         147.793
80.565                         1         104.654      4.09031e-65        -179.813      4.09031e-65        -179.813         0.999988         147.463
80.6                           1         104.303      4.09039e-65        -179.812      4.09039e-65        -179.812         0.999994         147.133
80.635                  0.999999         103.952      4.09047e-65        -179.812      4.09047e-65        -179.812                1         146.804
80.67                   0.999997         103.601      4.09055e-65        -179.811      4.09055e-65        -179.811                1         146.474
80.705                  0.999994          103.25      4.09063e-65         -179.81      4.09063e-65         -179.81                1         146.144
80.74                   0.999991         102.898      4.09071e-65        -179.809      4.09071e-65        -179.809                1         145.815
80.775                  0.999988         102.547      4.09079e-65        -179.808      4.09079e-65        -179.808                1         145.485
80.81                   0.999983         102.195      4.09088e-65        -179.808      4.09088e-65        -179.808                1         145.155
80.845                  0.999977         101.843      4.09096e-65        -179.807      4.09096e-65        -179.807                1         144.825
80.88                   0.999969          101.49      3.99126e-65        -179.806      3.99126e-65        -179.806                1         144.495
80.915                  0.999957         101.135      3.99134e-65        -179.806      3.99134e-65        -179.806                1         144.163
80.95                   0.999933         100.778      3.99142e-65        -179.805      3.99142e-65        -179.805                1         143.827
80.985                  0.999859         100.411      3.99151e-65        -179.804      3.99151e-65        -179.804                1          143.49
81.02                   0.998478         99.9462      3.99161e-65        -179.803      3.99161e-65        -179.803                1         143.155
81.055                  0.999955         99.8077      3.99166e-65        -179.803      3.99166e-65        -179.803                1         142.826
81.09                    1.00001         99.4215      3.99175e-65        -179.802      3.99175e-65        -179.802         0.999976         142.499
81.125                         1         99.0607      3.99183e-65        -179.801      3.99183e-65        -179.801          0.99995         142.171
81.16                   0.999997          98.705      3.99191e-65        -179.801      3.99191e-65        -179.801          0.99994         141.843
81.195                  0.999992         98.3513        3.992e-65          -179.8        3.992e-65          -179.8         0.999936         141.514
81.23                   0.999989         97.9985      3.99208e-65        -179.799      3.99208e-65        -179.799         0.999936         141.185
81.265                  0.999986         97.6461      3.99217e-65        -179.799      3.99217e-65        -179.799         0.999938         140.856
81.3                    0.999984          97.294      3.89244e-65        -179.798      3.89244e-65        -179.798         0.999941         140.526
81.335                  0.999984         96.9421      3.89253e-65        -179.797      3.89253e-65        -179.797         0.999944         140.197
81.37                   0.999984         96.5903      3.89261e-65        -179.797      3.89261e-65        -179.797         0.999948         139.867
81.405                  0.999985         96.2386      3.89269e-65        -179.796      3.89269e-65        -179.796         0.999951         139.538
81.44                   0.999986         95.8869      3.89277e-65        -179.795      3.89277e-65        -179.795         0.999955         139.208
81.475                  0.999988         95.5352      3.89286e-65        -179.795      3.89286e-65        -179.795         0.999958         138.878
81.51                   0.999991         95.1834      3.89294e-65        -179.794      3.89294e-65        -179.794         0.999961         138.548
81.545                  0.999995         94.8317      3.89303e-65        -179.794      3.89303e-65        -179.794         0.999965         138.218
81.58                   0.999998         94.4799      3.89311e-65        -179.793      3.89311e-65        -179.793         0.999968         137.888
81.615                         1          94.128      3.89319e-65        -179.792      3.89319e-65        -179.792         0.999971         137.558
81.65                    1.00001         93.7761      3.89328e-65        -179.792      3.89328e-65        -179.792         0.999974         137.228
81.685                   1.00001         93.4241      3.89336e-65        -179.791      3.89336e-65        -179.791         0.999977         136.898
81.72                    1.00002         93.0721      3.89345e-65        -179.791      3.89345e-65        -179.791          0.99998         136.568
81.755                   1.00002           92.72       3.7937e-65         -179.79       3.7937e-65         -179.79         0.999983         136.238
81.79                    1.00002         92.3678      3.79378e-65         -179.79      3.79378e-65         -179.79         0.999986         135.907
81.825                   1.00003         92.0156      3.79387e-65        -179.789      3.79387e-65        -179.789         0.999989         135.577
81.86                    1.00003         91.6633      3.79395e-65        -179.789      3.79395e-65        -179.789         0.999992         135.247
81.895                   1.00004          91.311      3.79403e-65        -179.788      3.79403e-65        -179.788         0.999995         134.917