! TOUCHSTONE file generated by CST MICROWAVE STUDIO
! Date and time: Wed Feb  7 15:51:48 2024
! Project name: metal_desal.cst
! Header version: 2018
! Port assignment regex: !\s*Touchstone port\s*([0-9]+)\s*=\s*(CST MWS port|CST DS port)\s*([0-9]+|Zmin|Zmax)\s*\(\"(.*)\"\)(\s*mode\s*([0-9]+))?.*
! Touchstone port assignment:
! Touchstone port 1 = CST MWS port 1 ("")
! Touchstone port 2 = CST MWS port 2 ("")
# GHz S MA R 376.7
75                      0.994277        -176.533                0               0                0               0         0.994321        -176.534
75.035                  0.994303         -176.87       3.7759e-65          179.98       3.7759e-65          179.98          0.99434         -176.87
75.07                   0.994328        -177.207      3.77592e-65         179.982      3.77592e-65         179.982          0.99436        -177.207
75.105                  0.994352        -177.543      3.77593e-65         179.984      3.77593e-65         179.984         0.994378        -177.543
75.14                   0.994375         -177.88      3.77595e-65         179.986      3.77595e-65         179.986         0.994397         -177.88
75.175                  0.994398        -178.216      3.77597e-65         179.989      3.77597e-65         179.989         0.994415        -178.216
75.21                   0.994419        -178.553      3.77598e-65         179.991      3.77598e-65         179.991         0.994432        -178.552
75.245                   0.99444         -178.89        3.776e-65         179.993        3.776e-65         179.993         0.994449        -178.889
75.28                    0.99446        -179.227      3.77602e-65         179.995      3.77602e-65         179.995         0.994465        -179.225
75.315                   0.99448        -179.563      3.77604e-65         179.997      3.77604e-65         179.997         0.994481        -179.562
75.35                   0.994498          -179.9      3.77606e-65         179.999      3.77606e-65         179.999         0.994496        -179.898
75.385                  0.994516         179.763      3.77608e-65        -179.999      3.77608e-65        -179.999         0.994511         179.765
75.42                   0.994533         179.426       3.7761e-65        -179.996       3.7761e-65        -179.996         0.994526         179.429
75.455                   0.99455         179.089      3.67675e-65        -179.994      3.67675e-65        -179.994          0.99454         179.092
75.49                   0.994565         178.753      3.67678e-65        -179.992      3.67678e-65        -179.992         0.994553         178.756
75.525                   0.99458         178.416       3.6768e-65         -179.99       3.6768e-65         -179.99         0.994566         178.419
75.56                   0.994595         178.079      3.67683e-65        -179.988      3.67683e-65        -179.988         0.994579         178.083
75.595                  0.994609         177.742      3.67685e-65        -179.986      3.67685e-65        -179.986         0.994591         177.746
75.63                   0.994622         177.406      3.67688e-65        -179.984      3.67688e-65        -179.984         0.994603          177.41
75.665                  0.994635         177.069       3.6769e-65        -179.982       3.6769e-65        -179.982         0.994615         177.073
75.7                    0.994647         176.732      3.67693e-65        -179.979      3.67693e-65        -179.979         0.994626         176.737
75.735                  0.994658         176.395      3.67696e-65        -179.977      3.67696e-65        -179.977         0.994636           176.4
75.77                   0.994669         176.059      3.67699e-65        -179.975      3.67699e-65        -179.975         0.994646         176.063
75.805                   0.99468         175.722      3.67702e-65        -179.973      3.67702e-65        -179.973         0.994656         175.727
75.84                   0.994689         175.385      3.67705e-65        -179.971      3.67705e-65        -179.971         0.994665          175.39
75.875                  0.994699         175.048      3.67708e-65        -179.969      3.67708e-65        -179.969         0.994674         175.054
75.91                   0.994708         174.712      3.67712e-65        -179.967      3.67712e-65        -179.967         0.994683         174.717
75.945                  0.994716         174.375      3.67715e-65        -179.965      3.67715e-65        -179.965         0.994691         174.381
75.98                   0.994724         174.038      3.67718e-65        -179.963      3.67718e-65        -179.963         0.994698         174.044
76.015                  0.994732         173.702      3.67722e-65        -179.961      3.67722e-65        -179.961         0.994705         173.708
76.05                   0.994738         173.365      3.67725e-65        -179.959      3.67725e-65        -179.959         0.994712         173.371
76.085                  0.994745         173.029      3.67729e-65        -179.957      3.67729e-65        -179.957         0.994719         173.035
76.12                   0.994751         172.692      3.57794e-65        -179.955      3.57794e-65        -179.955         0.994724         172.699
76.155                  0.994756         172.356      3.57797e-65        -179.953      3.57797e-65        -179.953          0.99473         172.362
76.19                   0.994761         172.019      3.57801e-65        -179.951      3.57801e-65        -179.951         0.994735         172.026
76.225                  0.994766         171.683      3.57805e-65        -179.949      3.57805e-65        -179.949         0.994739         171.689
76.26                   0.994769         171.346      3.57809e-65        -179.947      3.57809e-65        -179.947         0.994743         171.353
76.295                  0.994773          171.01      3.57813e-65        -179.945      3.57813e-65        -179.945         0.994746         171.017
76.33                   0.994775         170.674      3.57817e-65        -179.943      3.57817e-65        -179.943         0.994749          170.68
76.365                  0.994777         170.337      3.57821e-65        -179.941      3.57821e-65        -179.941         0.994751         170.344
76.4                    0.994779         170.001      3.57825e-65        -179.939      3.57825e-65        -179.939         0.994753         170.008
76.435                  0.994779         169.665      3.57829e-65        -179.937      3.57829e-65        -179.937         0.994753         169.672
76.47                   0.994779         169.329      3.57833e-65        -179.935      3.57833e-65        -179.935         0.994753         169.336
76.505                  0.994778         168.993      3.57838e-65        -179.933      3.57838e-65        -179.933         0.994753             169
76.54                   0.994777         168.657      3.57842e-65        -179.931      3.57842e-65        -179.931         0.994751         168.664
76.575                  0.994774         168.322      3.47907e-65        -179.929      3.47907e-65        -179.929         0.994749         168.329
76.61                    0.99477         167.986      3.47911e-65        -179.927      3.47911e-65        -179.927         0.994745         167.993
76.645                  0.994765         167.651      3.47915e-65        -179.925      3.47915e-65        -179.925         0.994741         167.658
76.68                   0.994759         167.316       3.4792e-65        -179.923       3.4792e-65        -179.923         0.994735         167.323
76.715                  0.994751         166.981      3.47925e-65        -179.921      3.47925e-65        -179.921         0.994727         166.988
76.75                   0.994742         166.646      3.47929e-65        -179.919      3.47929e-65        -179.919         0.994719         166.653
76.785                  0.994731         166.312                0               0                0               0         0.994708         166.319
76.82                   0.994719         165.979      3.47939e-65        -179.915      3.47939e-65        -179.915         0.994696         165.986
76.855                  0.994705         165.646      3.47944e-65        -179.913      3.47944e-65        -179.913         0.994683         165.653
76.89                   0.994689         165.314      3.47949e-65        -179.911      3.47949e-65        -179.911         0.994667          165.32
76.925                  0.994672         164.983      3.47954e-65         -179.91      3.47954e-65         -179.91         0.994651          164.99
76.96                   0.994655         164.653      3.47959e-65        -179.908      3.47959e-65        -179.908         0.994635          164.66
76.995                  0.994642         164.326      3.47964e-65        -179.906      3.47964e-65        -179.906         0.994623         164.333
77.03                   0.994641         164.003      3.38027e-65        -179.904      3.38027e-65        -179.904         0.994623         164.009
77.065                  0.994674         163.684      3.38032e-65        -179.902      3.38032e-65        -179.902         0.994657         163.691
77.1                    0.994792         163.374      3.38036e-65        -179.901      3.38036e-65        -179.901         0.994778         163.381
77.135                  0.995147         163.075      3.38041e-65        -179.899      3.38041e-65        -179.899         0.995139         163.082
77.17                   0.996131         162.784      3.38043e-65        -179.897      3.38043e-65        -179.897         0.996143         162.791
77.205                  0.998223         162.447      3.38045e-65        -179.895      3.38045e-65        -179.895         0.998267         162.451
77.24                   0.999699         161.986      3.38049e-65        -179.892      3.38049e-65        -179.892         0.999689         161.987
77.275                  0.998957         161.539      3.38057e-65         -179.89      3.38057e-65         -179.89         0.998883         161.541
77.31                   0.997886         161.166      3.38065e-65        -179.888      3.38065e-65        -179.888         0.997807          161.17
77.345                  0.997158         160.823      3.38072e-65        -179.886      3.38072e-65        -179.886         0.997087         160.829
77.38                   0.996696         160.489      3.38078e-65        -179.885      3.38078e-65        -179.885         0.996634         160.496
77.415                  0.996393         160.157      3.38085e-65        -179.883      3.38085e-65        -179.883         0.996337         160.164
77.45                   0.996184         159.825      3.38091e-65        -179.881      3.38091e-65        -179.881         0.996133         159.832
77.485                  0.996034         159.492      3.28153e-65        -179.879      3.28153e-65        -179.879         0.995987         159.499
77.52                   0.995923         159.159      3.28159e-65        -179.878      3.28159e-65        -179.878         0.995878         159.166
77.555                  0.995838         158.826      3.28165e-65        -179.876      3.28165e-65        -179.876         0.995795         158.833
77.59                   0.995771         158.491       3.2817e-65        -179.874       3.2817e-65        -179.874          0.99573         158.499
77.625                  0.995718         158.157      3.28176e-65        -179.872      3.28176e-65        -179.872         0.995679         158.164
77.66                   0.995674         157.822      3.28182e-65        -179.871      3.28182e-65        -179.871         0.995637         157.829
77.695                  0.995639         157.487      3.28188e-65        -179.869      3.28188e-65        -179.869         0.995602         157.494
77.73                   0.995609         157.152      3.28194e-65        -179.867      3.28194e-65        -179.867         0.995574         157.159
77.765                  0.995584         156.816      3.28201e-65        -179.865      3.28201e-65        -179.865          0.99555         156.824
77.8                    0.995563         156.481      3.28207e-65        -179.864      3.28207e-65        -179.864          0.99553         156.488
77.835                  0.995545         156.145      3.28213e-65        -179.862      3.28213e-65        -179.862         0.995514         156.153
77.87                    0.99553         155.809      3.28219e-65         -179.86      3.28219e-65         -179.86           0.9955         155.817
77.905                  0.995517         155.473      3.18279e-65        -179.859      3.18279e-65        -179.859         0.995488         155.481
77.94                   0.995506         155.137      3.18285e-65        -179.857      3.18285e-65        -179.857         0.995478         155.145
77.975                  0.995496         154.801      3.18292e-65        -179.855      3.18292e-65        -179.855          0.99547         154.809
78.01                   0.995488         154.465      3.18298e-65        -179.854      3.18298e-65        -179.854         0.995463         154.473
78.045                  0.995481         154.129      3.18304e-65        -179.852      3.18304e-65        -179.852         0.995457         154.137
78.08                   0.995475         153.792       3.1831e-65         -179.85       3.1831e-65         -179.85         0.995452         153.801
78.115                   0.99547         153.456      3.18317e-65        -179.849      3.18317e-65        -179.849         0.995449         153.464
78.15                   0.995466          153.12      3.18323e-65        -179.847      3.18323e-65        -179.847         0.995446         153.128
78.185                  0.995463         152.783       3.1833e-65        -179.845       3.1833e-65        -179.845         0.995444         152.792
78.22                    0.99546         152.447      3.18336e-65        -179.844      3.18336e-65        -179.844         0.995442         152.455
78.255                  0.995458         152.111      3.18343e-65        -179.842      3.18343e-65        -179.842         0.995441         152.119
78.29                   0.995457         151.774       3.1835e-65         -179.84       3.1835e-65         -179.84         0.995439         151.783
78.325                  0.995456         151.438      3.18356e-65        -179.839      3.18356e-65        -179.839         0.995438         151.447
78.36                   0.995456         151.101      3.08414e-65        -179.837      3.08414e-65        -179.837         0.995437          151.11
78.395                  0.995457         150.764      3.08421e-65        -179.836      3.08421e-65        -179.836         0.995435         150.774
78.43                   0.995458         150.428      3.08427e-65        -179.834      3.08427e-65        -179.834         0.995434         150.437
78.465                  0.995459         150.091      3.08434e-65        -179.833      3.08434e-65        -179.833         0.995432         150.101
78.5                    0.995461         149.755      3.08441e-65        -179.831      3.08441e-65        -179.831          0.99543         149.764
78.535                  0.995464         149.418      3.08447e-65        -179.829      3.08447e-65        -179.829         0.995429         149.428
78.57                   0.995468         149.082                0               0                0               0         0.995429         149.091
78.605                  0.995472         148.745      3.08461e-65        -179.826      3.08461e-65        -179.826         0.995429         148.754
78.64                   0.995477         148.408      3.08468e-65        -179.825      3.08468e-65        -179.825          0.99543         148.418
78.675                  0.995481         148.071      3.08475e-65        -179.823      3.08475e-65        -179.823         0.995432         148.081
78.71                   0.995485         147.734      3.08481e-65        -179.822      3.08481e-65        -179.822         0.995434         147.744
78.745                  0.995489         147.398      3.08488e-65         -179.82      3.08488e-65         -179.82         0.995437         147.408
78.78                   0.995491         147.061      3.08495e-65        -179.819      3.08495e-65        -179.819          0.99544         147.071
78.815                  0.995493         146.724      3.08503e-65        -179.817      3.08503e-65        -179.817         0.995444         146.734
78.85                   0.995495         146.387       3.0851e-65        -179.816       3.0851e-65        -179.816         0.995448         146.397
78.885                  0.995497          146.05      3.08517e-65        -179.814      3.08517e-65        -179.814         0.995452         146.061
78.92                     0.9955         145.713      3.08524e-65        -179.813      3.08524e-65        -179.813         0.995457         145.724
78.955                  0.995503         145.377      3.08531e-65        -179.811      3.08531e-65        -179.811         0.995462         145.387
78.99                   0.995506          145.04      3.08538e-65         -179.81      3.08538e-65         -179.81         0.995467         145.051
79.025                  0.995509         144.703      2.98593e-65        -179.809      2.98593e-65        -179.809         0.995472         144.714
79.06                   0.995513         144.367        2.986e-65        -179.807        2.986e-65        -179.807         0.995478         144.377
79.095                  0.995518          144.03      2.98607e-65        -179.806      2.98607e-65        -179.806         0.995484          144.04
79.13                   0.995523         143.693      2.98614e-65        -179.804      2.98614e-65        -179.804          0.99549         143.704
79.165                  0.995528         143.356      2.98621e-65        -179.803      2.98621e-65        -179.803         0.995496         143.367
79.2                    0.995533          143.02      2.98628e-65        -179.802      2.98628e-65        -179.802         0.995503          143.03
79.235                  0.995539         142.683      2.98636e-65          -179.8      2.98636e-65          -179.8          0.99551         142.694
79.27                   0.995546         142.346      2.98643e-65        -179.799      2.98643e-65        -179.799         0.995517         142.357
79.305                  0.995553         142.009       2.9865e-65        -179.798       2.9865e-65        -179.798         0.995525          142.02
79.34                    0.99556         141.673      2.98658e-65        -179.796      2.98658e-65        -179.796         0.995533         141.684
79.375                  0.995567         141.336      2.98665e-65        -179.795      2.98665e-65        -179.795         0.995541         141.347
79.41                   0.995575         140.999      2.98673e-65        -179.794      2.98673e-65        -179.794          0.99555          141.01
79.445                  0.995583         140.663       2.9868e-65        -179.792       2.9868e-65        -179.792         0.995559         140.673
79.48                   0.995592         140.326      2.98688e-65        -179.791      2.98688e-65        -179.791         0.995568         140.337
79.515                  0.995601         139.989      2.98695e-65         -179.79      2.98695e-65         -179.79         0.995578             140
79.55                   0.995611         139.652      2.98703e-65        -179.788      2.98703e-65        -179.788         0.995588         139.663
79.585                  0.995621         139.316       2.9871e-65        -179.787       2.9871e-65        -179.787         0.995599         139.327
79.62                   0.995632         138.979      2.98718e-65        -179.786      2.98718e-65        -179.786         0.995611          138.99
79.655                  0.995643         138.642      2.88768e-65        -179.784      2.88768e-65        -179.784         0.995622         138.654
79.69                   0.995654         138.306      2.88775e-65        -179.783      2.88775e-65        -179.783         0.995635         138.317
79.725                  0.995667         137.969      2.88783e-65        -179.782      2.88783e-65        -179.782         0.995647          137.98
79.76                   0.995679         137.632       2.8879e-65        -179.781       2.8879e-65        -179.781         0.995661         137.644
79.795                  0.995693         137.296      2.88798e-65         -179.78      2.88798e-65         -179.78         0.995675         137.307
79.83                   0.995707         136.959      2.88806e-65        -179.778      2.88806e-65        -179.778          0.99569          136.97
79.865                  0.995721         136.622      2.88813e-65        -179.777      2.88813e-65        -179.777         0.995705         136.634
79.9                    0.995737         136.285      2.88821e-65        -179.776      2.88821e-65        -179.776         0.995721         136.297
79.935                  0.995753         135.949      2.88828e-65        -179.775      2.88828e-65        -179.775         0.995738         135.961
79.97                    0.99577         135.612      2.88836e-65        -179.774      2.88836e-65        -179.774         0.995756         135.624
80.005                  0.995787         135.275      2.88844e-65        -179.772      2.88844e-65        -179.772         0.995774         135.287
80.04                   0.995806         134.939      2.88851e-65        -179.771      2.88851e-65        -179.771         0.995793         134.951
80.075                  0.995825         134.602      2.78899e-65         -179.77      2.78899e-65         -179.77         0.995813         134.614
80.11                   0.995845         134.266      2.78906e-65        -179.769      2.78906e-65        -179.769         0.995834         134.278
80.145                  0.995867         133.929      2.78914e-65        -179.768      2.78914e-65        -179.768         0.995856         133.941
80.18                   0.995889         133.592      2.78921e-65        -179.767      2.78921e-65        -179.767         0.995879         133.604
80.215                  0.995913         133.256      2.78929e-65        -179.766      2.78929e-65        -179.766         0.995903         133.268
80.25                   0.995937         132.919      2.78936e-65        -179.765      2.78936e-65        -179.765         0.995927         132.931
80.285                  0.995963         132.582                0               0                0               0         0.995952         132.595
80.32                   0.995991         132.246      2.78952e-65        -179.762      2.78952e-65        -179.762         0.995979         132.259
80.355                  0.996019         131.909      2.78959e-65        -179.761      2.78959e-65        -179.761         0.996014         131.922
80.39                    0.99605         131.573      2.78967e-65         -179.76      2.78967e-65         -179.76         0.996052         131.586
80.425                  0.996082         131.236      2.78975e-65        -179.759      2.78975e-65        -179.759         0.996089         131.249
80.46                   0.996116         130.899      2.78982e-65        -179.758      2.78982e-65        -179.758         0.996125         130.912
80.495                  0.996152         130.563       2.7899e-65        -179.757       2.7899e-65        -179.757         0.996162         130.575
80.53                    0.99619         130.226      2.69034e-65        -179.756      2.69034e-65        -179.756         0.996201         130.239
80.565                  0.996231          129.89      2.69041e-65        -179.755      2.69041e-65        -179.755         0.996242         129.902
80.6                    0.996274         129.553      2.69049e-65        -179.754      2.69049e-65        -179.754         0.996284         129.565
80.635                   0.99632         129.216      2.69056e-65        -179.753      2.69056e-65        -179.753         0.996329         129.229
80.67                   0.996368          128.88      2.69064e-65        -179.752      2.69064e-65        -179.752         0.996377         128.892
80.705                   0.99642         128.543      2.69071e-65        -179.751      2.69071e-65        -179.751         0.996427         128.555
80.74                   0.996474         128.206      2.69079e-65         -179.75      2.69079e-65         -179.75         0.996479         128.218
80.775                  0.996531         127.869      2.69087e-65        -179.749      2.69087e-65        -179.749         0.996535         127.881
80.81                    0.99659         127.532      2.69094e-65        -179.748      2.69094e-65        -179.748         0.996593         127.544
80.845                  0.996653         127.195      2.69102e-65        -179.747      2.69102e-65        -179.747         0.996654         127.207
80.88                   0.996717         126.858       2.6911e-65        -179.746       2.6911e-65        -179.746         0.996719          126.87
80.915                  0.996785          126.52      2.69117e-65        -179.746      2.69117e-65        -179.746         0.996787         126.533
80.95                   0.996857         126.183      2.59158e-65        -179.745      2.59158e-65        -179.745         0.996859         126.196
80.985                  0.996931         125.846      2.59165e-65        -179.744      2.59165e-65        -179.744         0.996934         125.858
81.02                    0.99701         125.508      2.59173e-65        -179.743      2.59173e-65        -179.743         0.997013         125.521
81.055                  0.997092          125.17       2.5918e-65        -179.742       2.5918e-65        -179.742         0.997097         125.183
81.09                   0.997178         124.832      2.59188e-65        -179.741      2.59188e-65        -179.741         0.997184         124.845
81.125                  0.997269         124.494      2.59195e-65         -179.74      2.59195e-65         -179.74         0.997276         124.507
81.16                   0.997365         124.156      2.59203e-65        -179.739      2.59203e-65        -179.739         0.997373         124.169
81.195                  0.997465         123.817       2.5921e-65        -179.739       2.5921e-65        -179.739         0.997474          123.83
81.23                   0.997571         123.478      2.59218e-65        -179.738      2.59218e-65        -179.738          0.99758         123.491
81.265                  0.997681         123.139      2.59225e-65        -179.737      2.59225e-65        -179.737          0.99769         123.152
81.3                    0.997796         122.799      2.59233e-65        -179.736      2.59233e-65        -179.736         0.997806         122.812
81.335                  0.997916         122.459      2.59241e-65        -179.735      2.59241e-65        -179.735         0.997925         122.472
81.37                   0.998041         122.119      2.49277e-65        -179.734      2.49277e-65        -179.734         0.998049         122.131
81.405                   0.99817         121.778      2.49285e-65        -179.734      2.49285e-65        -179.734         0.998178          121.79
81.44                   0.998303         121.436      2.49292e-65        -179.733      2.49292e-65        -179.733          0.99831         121.449
81.475                  0.998439         121.094        2.493e-65        -179.732        2.493e-65        -179.732         0.998445         121.106
81.51                   0.998577         120.751      2.49307e-65        -179.731      2.49307e-65        -179.731         0.998582         120.763
81.545                  0.998717         120.407      2.49314e-65        -179.731      2.49314e-65        -179.731         0.998721         120.419
81.58                   0.998857         120.062      2.49322e-65         -179.73      2.49322e-65         -179.73          0.99886         120.075
81.615                  0.998996         119.716       2.4933e-65        -179.729       2.4933e-65        -179.729         0.998998         119.729
81.65                   0.999131          119.37      2.49337e-65        -179.728      2.49337e-65        -179.728         0.999133         119.383
81.685                   0.99926         119.022      2.49345e-65        -179.728      2.49345e-65        -179.728         0.999263         119.035
81.72                   0.999382         118.674      2.49353e-65        -179.727      2.49353e-65        -179.727         0.999386         118.686
81.755                  0.999494         118.324       2.4936e-65        -179.726       2.4936e-65        -179.726         0.999499         118.337
81.79                   0.999593         117.973      2.39393e-65        -179.725      2.39393e-65        -179.725         0.999599         117.986
81.825                  0.999676         117.622      2.39401e-65        -179.725      2.39401e-65        -179.725         0.999683         117.635
81.86                   0.999741          117.27      2.39408e-65        -179.724      2.39408e-65        -179.724         0.999748         117.282
81.895                  0.999784         116.916      2.39416e-65        -179.723      2.39416e-65        -179.723         0.999791         116.929