! TOUCHSTONE file generated by CST MICROWAVE STUDIO
! Date and time: Fri Feb 16 17:58:30 2024
! Project name: metal_rotado.cst
! Parameters = {angX=0.75; angY=2}
! Header version: 2018
! Port assignment regex: !\s*Touchstone port\s*([0-9]+)\s*=\s*(CST MWS port|CST DS port)\s*([0-9]+|Zmin|Zmax)\s*\(\"(.*)\"\)(\s*mode\s*([0-9]+))?.*
! Touchstone port assignment:
! Touchstone port 1 = CST MWS port 1 ("")
! Touchstone port 2 = CST MWS port 2 ("")
# GHz S MA R 376.7
75                      0.998759        -176.939        0.0498089         93.0504        0.0497823         93.0334          0.99876        -176.969
75.035                  0.998773        -176.966        0.0493647         93.0223        0.0493352         92.9921         0.998778        -176.996
75.07                   0.998788        -176.993         0.048925         92.9947        0.0488926         92.9521         0.998796        -177.022
75.105                  0.998802        -177.019        0.0484895         92.9674        0.0484543         92.9134         0.998814        -177.048
75.14                   0.998817        -177.045        0.0480582         92.9404        0.0480201          92.876         0.998832        -177.074
75.175                  0.998832        -177.071        0.0476306         92.9138        0.0475898         92.8397          0.99885        -177.099
75.21                   0.998848        -177.097        0.0472067         92.8874        0.0471632         92.8045         0.998868        -177.124
75.245                  0.998863        -177.122        0.0467862         92.8614        0.0467401         92.7704         0.998885        -177.149
75.28                   0.998879        -177.147        0.0463688         92.8356        0.0463203         92.7374         0.998903        -177.174
75.315                  0.998895        -177.172        0.0459544         92.8101        0.0459036         92.7054          0.99892        -177.198
75.35                    0.99891        -177.197        0.0455427         92.7848        0.0454897         92.6743         0.998937        -177.223
75.385                  0.998926        -177.221        0.0451334         92.7598        0.0450784         92.6442         0.998954        -177.247
75.42                   0.998943        -177.245        0.0447265         92.7349        0.0446696         92.6149         0.998971        -177.271
75.455                  0.998959         -177.27        0.0443214         92.7103        0.0442629         92.5865         0.998988        -177.295
75.49                   0.998975        -177.293        0.0439182         92.6858         0.043858         92.5588         0.999005        -177.318
75.525                  0.998991        -177.317        0.0435164         92.6615        0.0434549          92.532         0.999022        -177.342
75.56                   0.999008        -177.341        0.0431158         92.6373         0.043053         92.5058         0.999039        -177.365
75.595                  0.999024        -177.365        0.0427161         92.6133        0.0426523         92.4803         0.999055        -177.389
75.63                   0.999041        -177.388         0.042317         92.5894        0.0422524         92.4553         0.999072        -177.412
75.665                  0.999058        -177.412        0.0419181         92.5655        0.0418529          92.431         0.999088        -177.435
75.7                    0.999074        -177.435        0.0415193         92.5417        0.0414535         92.4072         0.999104        -177.459
75.735                  0.999091        -177.459          0.04112          92.518         0.041054         92.3838         0.999121        -177.482
75.77                   0.999108        -177.482          0.04072         92.4942        0.0406538         92.3609         0.999137        -177.505
75.805                  0.999125        -177.505        0.0403187         92.4705        0.0402527         92.3384         0.999153        -177.529
75.84                   0.999142        -177.529        0.0399159         92.4467        0.0398501         92.3162          0.99917        -177.552
75.875                  0.999159        -177.553         0.039511         92.4228        0.0394456         92.2942         0.999186        -177.576
75.91                   0.999176        -177.576        0.0391035         92.3989        0.0390387         92.2725         0.999202        -177.599
75.945                  0.999193          -177.6        0.0386929         92.3748        0.0386289          92.251         0.999219        -177.623
75.98                    0.99921        -177.624        0.0382785         92.3506        0.0382155         92.2296         0.999235        -177.647
76.015                  0.999227        -177.649        0.0378598         92.3261        0.0377979         92.2082         0.999251        -177.672
76.05                   0.999244        -177.673         0.037436         92.3015        0.0373754         92.1869         0.999268        -177.696
76.085                  0.999262        -177.698        0.0370063         92.2765        0.0369471         92.1654         0.999284        -177.721
76.12                    0.99928        -177.723        0.0365699         92.2512        0.0365123         92.1438         0.999301        -177.747
76.155                  0.999297        -177.749        0.0361256         92.2255        0.0360698          92.122         0.999318        -177.772
76.19                   0.999315        -177.775        0.0356726         92.1993        0.0356186         92.0999         0.999335        -177.799
76.225                  0.999333        -177.802        0.0352094         92.1726        0.0351575         92.0774         0.999352        -177.825
76.26                   0.999352        -177.829        0.0347348         92.1452         0.034685         92.0544         0.999369        -177.853
76.295                  0.999371        -177.857        0.0342471         92.1172        0.0341995         92.0308         0.999387        -177.881
76.33                   0.999389        -177.886        0.0337444         92.0883        0.0336992         92.0065         0.999405         -177.91
76.365                  0.999409        -177.916        0.0332248         92.0585         0.033182         91.9814         0.999423         -177.94
76.4                    0.999428        -177.947        0.0326857         92.0276        0.0326455         91.9552         0.999442        -177.971
76.435                  0.999449        -177.979        0.0321243         91.9955        0.0320868         91.9279         0.999461        -178.004
76.47                   0.999469        -178.013        0.0315372         91.9619        0.0315025         91.8991         0.999481        -178.038
76.505                   0.99949        -178.048        0.0309206         91.9267        0.0308887         91.8688         0.999501        -178.073
76.54                   0.999512        -178.086        0.0302698         91.8895        0.0302407         91.8366         0.999522        -178.111
76.575                  0.999535        -178.125        0.0295789         91.8501        0.0295528         91.8021         0.999543        -178.151
76.61                   0.999558        -178.167        0.0288413          91.808        0.0288182         91.7651         0.999566        -178.194
76.645                  0.999583        -178.213        0.0280484         91.7628        0.0280284         91.7249          0.99959        -178.239
76.68                   0.999609        -178.262        0.0271898         91.7139        0.0271728         91.6811         0.999614        -178.289
76.715                  0.999636        -178.315        0.0262522         91.6605        0.0262384         91.6328          0.99964        -178.343
76.75                   0.999664        -178.374        0.0252189         91.6016        0.0252082         91.5792         0.999668        -178.403
76.785                  0.999695         -178.44        0.0240679         91.5361        0.0240604         91.5191         0.999698        -178.469
76.82                   0.999727        -178.514        0.0227705         91.4622        0.0227661         91.4507         0.999729        -178.544
76.855                  0.999762        -178.598        0.0212877         91.3778        0.0212864         91.3722         0.999763         -178.63
76.89                   0.999799        -178.697        0.0195656         91.2797        0.0195673         91.2805         0.999799        -178.729
76.925                  0.999839        -178.813        0.0175273         91.1637         0.017532         91.1718         0.999838        -178.847
76.96                   0.999881        -178.953        0.0150597         91.0233        0.0150671         91.0405          0.99988        -178.989
76.995                  0.999925        -179.128         0.011988         90.8488        0.0119981          90.879         0.999922        -179.166
77.03                   0.999967        -179.354       0.00802908         90.6249       0.00804145         90.6804         0.999963        -179.395
77.065                  0.999998        -179.658       0.00268989         90.3332        0.0027039          90.519         0.999993        -179.703
77.1                    0.999992         179.906       0.00496951        -90.1357       0.00495519         -90.238         0.999986         179.855
77.135                  0.999861          179.22        0.0169908        -90.8153        0.0169791        -90.8386         0.999855         179.162
77.17                   0.999247         177.976        0.0387942        -92.0608        0.0387943        -92.0597         0.999247         177.902
77.205                  0.995792         174.981        0.0910067        -95.0529        0.0910633        -95.0319         0.995837         174.879
77.24                   0.925108         158.141         0.372867        -111.694         0.373909        -111.651         0.927191         158.017
77.275                  0.949699        -161.791         0.315289         108.508         0.315017         108.425          0.94916        -161.415
77.31                   0.989654        -171.665         0.143447         98.3955         0.143427         98.3773         0.989647        -171.567
77.345                  0.994831        -174.055         0.101372         95.9709          0.10139         95.9691         0.994839        -174.006
77.38                   0.996585        -175.132        0.0823977         94.8815        0.0824302         94.8883         0.996592        -175.104
77.415                  0.997427        -175.748        0.0715455         94.2593        0.0715855          94.272         0.997433        -175.731
77.45                   0.997912        -176.149        0.0644788         93.8546        0.0645239         93.8719         0.997916        -176.139
77.485                  0.998225        -176.433        0.0594807         93.5686        0.0595297         93.5896         0.998228        -176.427
77.52                   0.998443        -176.646        0.0557355         93.3544        0.0557879         93.3785         0.998445        -176.644
77.555                  0.998604        -176.812        0.0528062          93.187        0.0528615         93.2139         0.998606        -176.813
77.59                   0.998728        -176.947        0.0504375         93.0517        0.0504955          93.081         0.998729         -176.95
77.625                  0.998826        -177.059        0.0484702         92.9394        0.0485306         92.9708         0.998828        -177.063
77.66                   0.998907        -177.154        0.0467999         92.8441        0.0468625         92.8773         0.998908         -177.16
77.695                  0.998975        -177.236        0.0453551         92.7617        0.0454198         92.7966         0.998976        -177.243
77.73                   0.999033        -177.309        0.0440853         92.6893        0.0441518         92.7256         0.999033        -177.317
77.765                  0.999083        -177.373        0.0429535         92.6248        0.0430217         92.6624         0.999083        -177.382
77.8                    0.999127        -177.431        0.0419321         92.5666        0.0420019         92.6053         0.999127        -177.441
77.835                  0.999166        -177.485        0.0410002         92.5135        0.0410714         92.5531         0.999167        -177.495
77.87                   0.999202        -177.534        0.0401412         92.4646        0.0402136         92.5049         0.999202        -177.545
77.905                  0.999234        -177.579         0.039342          92.419        0.0394154         92.4599         0.999234        -177.591
77.94                   0.999263        -177.622        0.0385918         92.3763        0.0386661         92.4176         0.999264        -177.635
77.975                  0.999291        -177.663        0.0378818         92.3358        0.0379568         92.3774         0.999292        -177.676
78.01                   0.999317        -177.702        0.0372044         92.2971        0.0372799         92.3389         0.999318        -177.715
78.045                  0.999341        -177.739        0.0365531         92.2599        0.0366289         92.3017         0.999342        -177.753
78.08                   0.999364        -177.775         0.035922         92.2238        0.0359979         92.2654         0.999365        -177.789
78.115                  0.999386         -177.81        0.0353057         92.1886        0.0353813         92.2299         0.999388        -177.825
78.15                   0.999407        -177.845         0.034699         92.1538        0.0347741         92.1946         0.999409        -177.861
78.185                  0.999428         -177.88        0.0340967         92.1192        0.0341711         92.1594          0.99943        -177.896
78.22                   0.999448        -177.914        0.0334935         92.0844        0.0335668         92.1239          0.99945        -177.931
78.255                  0.999468        -177.949        0.0328838         92.0493        0.0329556         92.0877         0.999471        -177.966
78.29                   0.999488        -177.985         0.032261         92.0133        0.0323308         92.0506         0.999491        -178.003
78.325                  0.999508        -178.022        0.0316176          91.976         0.031685         92.0118         0.999511         -178.04
78.36                   0.999529         -178.06        0.0309445         91.9368        0.0310087          91.971         0.999532        -178.079
78.395                  0.999551        -178.101          0.03023         91.8952        0.0302903         91.9273         0.999553        -178.121
78.43                   0.999573        -178.145        0.0294589         91.8502        0.0295144         91.8798         0.999576        -178.166
78.465                  0.999597        -178.194        0.0286108         91.8005        0.0286601          91.827         0.999599        -178.216
78.5                    0.999623        -178.248        0.0276566         91.7444        0.0276981          91.767         0.999625        -178.272
78.535                  0.999652        -178.311        0.0265537         91.6795        0.0265851         91.6969         0.999653        -178.336
78.57                   0.999684        -178.386        0.0252366         91.6019        0.0252546         91.6121         0.999685        -178.414
78.605                  0.999722         -178.48         0.023598         91.5053        0.0235974         91.5047         0.999722         -178.51
78.64                   0.999767        -178.602        0.0214493         91.3788         0.021422         91.3603         0.999765        -178.636
78.675                  0.999821        -178.774        0.0184243         91.2018        0.0183553         91.1481         0.999816        -178.814
78.71                   0.999885        -179.042        0.0137053         90.9309        0.0135631         90.7816         0.999875        -179.092
78.745                  0.999933        -179.535       0.00501328         90.5094       0.00471397          89.599         0.999915        -179.605
78.78                    0.99965         179.202        0.0172849        -91.0668        0.0181154        -90.3833          0.99961          179.07
78.815                  0.970433         167.786         0.218406        -103.396         0.232634        -102.934         0.967429         166.484
78.85                   0.993185        -173.513         0.110963         96.8201         0.110938         96.6417         0.993615         -173.45
78.885                  0.997704        -176.087        0.0658042         94.0621        0.0661042         94.0559         0.997823        -176.048
78.92                   0.998533        -176.811        0.0530783         93.2888         0.053358          93.313         0.998607        -176.786
78.955                  0.998862        -177.158        0.0469807         92.9193        0.0472335         92.9528         0.998919        -177.141
78.99                   0.999036        -177.365        0.0433425         92.6992        0.0435743          92.736         0.999085        -177.353
79.025                  0.999145        -177.505        0.0408855         92.5508        0.0411014         92.5885         0.999189        -177.497
79.06                    0.99922        -177.607        0.0390868         92.4423        0.0392904         92.4799          0.99926        -177.602
79.095                  0.999275        -177.687        0.0376929         92.3582        0.0378866         92.3953         0.999313        -177.683
79.13                   0.999318        -177.751        0.0365657         92.2902        0.0367513         92.3266         0.999354        -177.749
79.165                  0.999352        -177.805        0.0356237         92.2334        0.0358025         92.2689         0.999388        -177.804
79.2                    0.999381        -177.852        0.0348155         92.1846        0.0349885         92.2192         0.999416        -177.852
79.235                  0.999405        -177.893        0.0341073         92.1418        0.0342753         92.1755         0.999439        -177.893
79.27                   0.999426        -177.929        0.0334756         92.1035        0.0336392         92.1363          0.99946         -177.93
79.305                  0.999445        -177.962         0.032904         92.0688        0.0330635         92.1008         0.999478        -177.964
79.34                   0.999461        -177.992        0.0323801         92.0368         0.032536         92.0681         0.999494        -177.995
79.375                  0.999476        -178.021         0.031895         92.0072        0.0320476         92.0378         0.999509        -178.023
79.41                    0.99949        -178.047        0.0314416         91.9793        0.0315912         92.0094         0.999522         -178.05
79.445                  0.999503        -178.072        0.0310145          91.953        0.0311613         91.9825         0.999535        -178.075
79.48                   0.999515        -178.095        0.0306094         91.9278        0.0307537         91.9569         0.999546        -178.099
79.515                  0.999526        -178.118        0.0302229         91.9037        0.0303647         91.9325         0.999557        -178.121
79.55                   0.999537         -178.14        0.0298521         91.8805        0.0299917          91.909         0.999567        -178.143
79.585                  0.999547        -178.161        0.0294947         91.8579        0.0296321         91.8863         0.999577        -178.164
79.62                   0.999556        -178.181        0.0291487         91.8359        0.0292842         91.8643         0.999586        -178.184
79.655                  0.999566        -178.201        0.0288125         91.8143        0.0289461         91.8429         0.999594        -178.204
79.69                   0.999575         -178.22        0.0284847         91.7932        0.0286165          91.822         0.999602        -178.224
79.725                  0.999583        -178.239         0.028164         91.7723        0.0282943         91.8016          0.99961        -178.242
79.76                   0.999592        -178.257        0.0278494         91.7516        0.0279782         91.7815         0.999617        -178.261
79.795                    0.9996        -178.276          0.02754         91.7311        0.0276674         91.7617         0.999624        -178.279
79.83                   0.999608        -178.294        0.0272349         91.7108         0.027361         91.7421         0.999631        -178.297
79.865                  0.999616        -178.312        0.0269333         91.6904        0.0270584         91.7228         0.999638        -178.315
79.9                    0.999623        -178.329        0.0266346         91.6701        0.0267588         91.7037         0.999644        -178.333
79.935                  0.999631        -178.347        0.0263382         91.6497        0.0264616         91.6847          0.99965         -178.35
79.97                   0.999639        -178.364        0.0260434         91.6292        0.0261662         91.6658         0.999656        -178.368
80.005                  0.999646        -178.382        0.0257498         91.6087        0.0258722          91.647         0.999661        -178.385
80.04                   0.999654        -178.399        0.0254567         91.5879        0.0255789         91.6282         0.999666        -178.402
80.075                  0.999662        -178.417        0.0251637          91.567         0.025286         91.6094         0.999671        -178.419
80.11                   0.999669        -178.434        0.0248704         91.5459         0.024993         91.5907         0.999676        -178.437
80.145                  0.999677        -178.451        0.0245762         91.5246        0.0246995         91.5719         0.999681        -178.454
80.18                   0.999684        -178.469        0.0242807         91.5031         0.024405          91.553         0.999685        -178.472
80.215                  0.999692        -178.487        0.0239834         91.4815         0.024109          91.534         0.999689        -178.489
80.25                     0.9997        -178.505        0.0236839         91.4596        0.0238113         91.5149         0.999693        -178.507
80.285                  0.999708        -178.522        0.0233816         91.4376        0.0235114         91.4957         0.999697        -178.525
80.32                   0.999716        -178.541        0.0230762         91.4156        0.0232088         91.4763         0.999701        -178.543
80.355                  0.999724        -178.559         0.022767         91.3938        0.0229031         91.4567         0.999704        -178.562
80.39                   0.999733        -178.577        0.0224536         91.3722        0.0225939         91.4369         0.999708         -178.58
80.425                  0.999741        -178.596        0.0221355         91.3512        0.0222807         91.4168         0.999711          -178.6
80.46                    0.99975        -178.615        0.0218121         91.3313        0.0219631         91.3964         0.999715        -178.619
80.495                  0.999759        -178.635        0.0214828         91.3129        0.0216406         91.3757         0.999721        -178.639
80.53                   0.999769        -178.655        0.0211471         91.2967        0.0213127         91.3547         0.999728         -178.66
80.565                  0.999778        -178.675        0.0208044         91.2839        0.0209788         91.3333          0.99974        -178.681
80.6                    0.999789        -178.695        0.0204542         91.2755        0.0206384         91.3114          0.99976        -178.704
80.635                  0.999799        -178.716        0.0200962         91.2733        0.0202909         91.2891         0.999794        -178.727
80.67                    0.99981        -178.738          0.01973          91.279        0.0199356         91.2662         0.999855        -178.751
80.705                  0.999821         -178.76        0.0193555         91.2946        0.0195719         91.2428         0.999958        -178.775
80.74                   0.999833        -178.782         0.018973         91.3219        0.0191991         91.2188                1        -178.796
80.775                  0.999846        -178.806        0.0185827         91.3618        0.0188162         91.1941                1        -178.814
80.81                   0.999859         -178.83        0.0181853         91.4139        0.0184225         91.1687                1        -178.829
80.845                  0.999874        -178.854        0.0177809         91.4759        0.0180171         91.1424                1        -178.845
80.88                   0.999889         -178.88        0.0173695         91.5433        0.0175989         91.1153                1        -178.865
80.915                  0.999905        -178.906          0.01695         91.6102        0.0171669         91.0872                1        -178.887
80.95                   0.999922        -178.934        0.0165203         91.6704        0.0167197         91.0581                1        -178.912
80.985                  0.999942        -178.962        0.0160777         91.7191        0.0162562         91.0277                1        -178.938
81.02                   0.999962        -178.992        0.0156191         91.7539        0.0157747         90.9961                1        -178.966
81.055                  0.999985        -179.023        0.0151411         91.7744        0.0152737          90.963                1        -178.995
81.09                          1        -179.055        0.0146409         91.7822        0.0147514         90.9283                1        -179.025
81.125                         1        -179.089        0.0141156         91.7796        0.0142057         90.8918                1        -179.057
81.16                          1        -179.124        0.0135626         91.7695        0.0136344         90.8533                1         -179.09
81.195                         1        -179.162        0.0129794         91.7545        0.0130349         90.8125                1        -179.125
81.23                          1        -179.202         0.012363         91.7371        0.0124044          90.769                1        -179.162
81.265                         1        -179.244        0.0117105         91.7196        0.0117396         90.7225                1          -179.2
81.3                           1        -179.289        0.0110184         91.7043        0.0110368         90.6724                1        -179.241
81.335                         1        -179.337        0.0102827         91.6937        0.0102918          90.618                1        -179.284
81.37                          1        -179.389       0.00949863          91.691       0.00949969         90.5584                1         -179.33
81.405                         1        -179.445       0.00866088         91.7008       0.00865494         90.4922                1        -179.379
81.44                          1        -179.505       0.00776306         91.7302       0.00775099         90.4174                1        -179.431
81.475                         1         -179.57       0.00679767         91.7918       0.00678024         90.3306                1        -179.487
81.51                          1        -179.637       0.00575589         91.9095       0.00573373         90.2257                1        -179.548
81.545                         1          -179.7       0.00462725         92.1363       0.00460087         90.0896                1        -179.613
81.58                          1        -179.733        0.0033993         92.6154       0.00336901         89.8882                1        -179.684
81.615                         1        -179.715       0.00205747         93.9099       0.00202295         89.4876                1        -179.762
81.65                          1        -179.716      0.000590552         102.606      0.000544601         87.2096                1        -179.847
81.685                         1        -179.797       0.00106306        -96.5923       0.00109087        -88.3891                1        -179.941
81.72                          1        -179.919       0.00287512        -92.4201       0.00290863        -89.4299                1         179.954
81.755                         1         179.942       0.00491037        -91.5081       0.00494561         -89.779                1         179.837
81.79                          1         179.792       0.00721103        -91.1821       0.00724678        -90.0169                1         179.705
81.825                   0.99996         179.627       0.00983519        -91.0759       0.00987051        -90.2284                1         179.554
81.86                   0.999853         179.442        0.0128599        -91.0867        0.0128938        -90.4417         0.999971         179.381
81.895                  0.999758         179.231        0.0163887        -91.1777        0.0164201        -90.6723         0.999918         179.178