! TOUCHSTONE file generated by CST MICROWAVE STUDIO
! Date and time: Fri Feb  2 19:20:01 2024
! Project name: metal_prueba.cst
! Header version: 2018
! Port assignment regex: !\s*Touchstone port\s*([0-9]+)\s*=\s*(CST MWS port|CST DS port)\s*([0-9]+|Zmin|Zmax)\s*\(\"(.*)\"\)(\s*mode\s*([0-9]+))?.*
! Touchstone port assignment:
! Touchstone port 1 = CST MWS port 1 ("")
! Touchstone port 2 = CST MWS port 2 ("")
# GHz S MA R 376.7
50                             1         59.5562                0               0                0               0                1         59.5541
50.007                         1          59.489      8.00087e-66        -179.989      8.00087e-66        -179.989                1         59.4868
50.014                         1         59.4217      8.00087e-66        -179.989      8.00087e-66        -179.989                1         59.4196
50.021                         1         59.3544      8.00087e-66        -179.989      8.00087e-66        -179.989                1         59.3523
50.028                         1         59.2872      8.00088e-66        -179.989      8.00088e-66        -179.989                1         59.2851
50.035                         1         59.2199      8.00088e-66        -179.989      8.00088e-66        -179.989                1         59.2178
50.042                         1         59.1526      8.00088e-66        -179.989      8.00088e-66        -179.989                1         59.1505
50.049                         1         59.0854      8.00088e-66        -179.989      8.00088e-66        -179.989                1         59.0833
50.056                         1         59.0181      8.00088e-66        -179.989      8.00088e-66        -179.989                1          59.016
50.063                         1         58.9509      8.00089e-66        -179.989      8.00089e-66        -179.989                1         58.9487
50.07                          1         58.8836      8.00089e-66        -179.989      8.00089e-66        -179.989                1         58.8815
50.077                         1         58.8163      8.00089e-66        -179.989      8.00089e-66        -179.989                1         58.8142
50.084                         1         58.7491      8.00089e-66        -179.989      8.00089e-66        -179.989                1         58.7469
50.091                         1         58.6818      8.00089e-66         -179.99      8.00089e-66         -179.99                1         58.6797
50.098                         1         58.6145      8.00089e-66         -179.99      8.00089e-66         -179.99                1         58.6124
50.105                         1         58.5473       8.0009e-66         -179.99       8.0009e-66         -179.99                1         58.5451
50.112                         1           58.48       8.0009e-66         -179.99       8.0009e-66         -179.99                1         58.4779
50.119                         1         58.4127       8.0009e-66         -179.99       8.0009e-66         -179.99                1         58.4106
50.126                         1         58.3455       8.0009e-66         -179.99       8.0009e-66         -179.99                1         58.3433
50.133                         1         58.2782       8.0009e-66         -179.99       8.0009e-66         -179.99                1         58.2761
50.14                          1          58.211       8.0009e-66         -179.99       8.0009e-66         -179.99                1         58.2088
50.147                         1         58.1437      8.00091e-66         -179.99      8.00091e-66         -179.99                1         58.1415
50.154                         1         58.0764      8.00091e-66         -179.99      8.00091e-66         -179.99                1         58.0743
50.161                         1         58.0092      8.00091e-66         -179.99      8.00091e-66         -179.99                1          58.007
50.168                         1         57.9419      8.00091e-66         -179.99      8.00091e-66         -179.99                1         57.9397
50.175                         1         57.8746      8.00091e-66         -179.99      8.00091e-66         -179.99                1         57.8725
50.182                         1         57.8074      8.00091e-66         -179.99      8.00091e-66         -179.99                1         57.8052
50.189                         1         57.7401      8.00092e-66         -179.99      8.00092e-66         -179.99                1         57.7379
50.196                         1         57.6728      8.00092e-66         -179.99      8.00092e-66         -179.99                1         57.6707
50.203                         1         57.6056      8.00092e-66         -179.99      8.00092e-66         -179.99                1         57.6034
50.21                          1         57.5383      8.00092e-66         -179.99      8.00092e-66         -179.99                1         57.5361
50.217                         1         57.4711      8.00092e-66         -179.99      8.00092e-66         -179.99                1         57.4689
50.224                         1         57.4038      8.00092e-66         -179.99      8.00092e-66         -179.99                1         57.4016
50.231                         1         57.3365      8.00093e-66         -179.99      8.00093e-66         -179.99                1         57.3343
50.238                         1         57.2693      8.00093e-66         -179.99      8.00093e-66         -179.99                1         57.2671
50.245                         1          57.202      8.00093e-66         -179.99      8.00093e-66         -179.99                1         57.1998
50.252                         1         57.1347      8.00093e-66         -179.99      8.00093e-66         -179.99                1         57.1325
50.259                         1         57.0675      8.00093e-66         -179.99      8.00093e-66         -179.99                1         57.0653
50.266                         1         57.0002      8.00093e-66         -179.99      8.00093e-66         -179.99                1          56.998
50.273                         1         56.9329      8.00094e-66         -179.99      8.00094e-66         -179.99                1         56.9307
50.28                          1         56.8657      8.00094e-66         -179.99      8.00094e-66         -179.99                1         56.8635
50.287                         1         56.7984      8.00094e-66         -179.99      8.00094e-66         -179.99                1         56.7962
50.294                         1         56.7311      8.00094e-66         -179.99      8.00094e-66         -179.99                1         56.7289
50.301                         1         56.6639      8.00094e-66         -179.99      8.00094e-66         -179.99                1         56.6617
50.308                         1         56.5966      8.00094e-66         -179.99      8.00094e-66         -179.99                1         56.5944
50.315                         1         56.5293      8.00095e-66         -179.99      8.00095e-66         -179.99                1         56.5271
50.322                         1         56.4621      8.00095e-66         -179.99      8.00095e-66         -179.99                1         56.4599
50.329                         1         56.3948      8.00095e-66         -179.99      8.00095e-66         -179.99                1         56.3926
50.336                         1         56.3276      8.00095e-66         -179.99      8.00095e-66         -179.99                1         56.3253
50.343                         1         56.2603      8.00095e-66         -179.99      8.00095e-66         -179.99                1         56.2581
50.35                          1          56.193      8.00095e-66         -179.99      8.00095e-66         -179.99                1         56.1908
50.357                         1         56.1258      8.00096e-66         -179.99      8.00096e-66         -179.99                1         56.1235
50.364                         1         56.0585      8.00096e-66         -179.99      8.00096e-66         -179.99                1         56.0563
50.371                         1         55.9912      8.00096e-66         -179.99      8.00096e-66         -179.99                1          55.989
50.378                         1          55.924      8.00096e-66         -179.99      8.00096e-66         -179.99                1         55.9217
50.385                         1         55.8567      8.00096e-66         -179.99      8.00096e-66         -179.99                1         55.8545
50.392                         1         55.7894      8.00096e-66         -179.99      8.00096e-66         -179.99                1         55.7872
50.399                         1         55.7222      8.00097e-66         -179.99      8.00097e-66         -179.99                1         55.7199
50.406                         1         55.6549      8.00097e-66         -179.99      8.00097e-66         -179.99                1         55.6527
50.413                         1         55.5876      8.00097e-66         -179.99      8.00097e-66         -179.99                1         55.5854
50.42                          1         55.5204      8.00097e-66         -179.99      8.00097e-66         -179.99                1         55.5181
50.427                         1         55.4531      8.00097e-66         -179.99      8.00097e-66         -179.99                1         55.4509
50.434                         1         55.3858      8.00097e-66         -179.99      8.00097e-66         -179.99                1         55.3836
50.441                         1         55.3186      7.00085e-66         -179.99      7.00085e-66         -179.99                1         55.3163
50.448                         1         55.2513      7.00086e-66         -179.99      7.00086e-66         -179.99                1         55.2491
50.455                         1          55.184      7.00086e-66         -179.99      7.00086e-66         -179.99                1         55.1818
50.462                         1         55.1168      7.00086e-66         -179.99      7.00086e-66         -179.99                1         55.1145
50.469                         1         55.0495      7.00086e-66         -179.99      7.00086e-66         -179.99                1         55.0473
50.476                         1         54.9822      7.00086e-66         -179.99      7.00086e-66         -179.99                1           54.98
50.483                         1          54.915      7.00086e-66         -179.99      7.00086e-66         -179.99                1         54.9127
50.49                          1         54.8477      7.00086e-66         -179.99      7.00086e-66         -179.99                1         54.8455
50.497                         1         54.7804      7.00087e-66         -179.99      7.00087e-66         -179.99                1         54.7782
50.504                         1         54.7132      7.00087e-66         -179.99      7.00087e-66         -179.99                1         54.7109
50.511                         1         54.6459      7.00087e-66         -179.99      7.00087e-66         -179.99                1         54.6437
50.518                         1         54.5787      7.00087e-66         -179.99      7.00087e-66         -179.99                1         54.5764
50.525                         1         54.5114      7.00087e-66         -179.99      7.00087e-66         -179.99                1         54.5091
50.532                         1         54.4441      7.00087e-66         -179.99      7.00087e-66         -179.99                1         54.4419
50.539                         1         54.3769      7.00087e-66         -179.99      7.00087e-66         -179.99                1         54.3746
50.546                         1         54.3096      7.00088e-66         -179.99      7.00088e-66         -179.99                1         54.3073
50.553                         1         54.2423      7.00088e-66         -179.99      7.00088e-66         -179.99                1         54.2401
50.56                          1         54.1751      7.00088e-66         -179.99      7.00088e-66         -179.99                1         54.1728
50.567                         1         54.1078      7.00088e-66         -179.99      7.00088e-66         -179.99                1         54.1055
50.574                         1         54.0405      7.00088e-66         -179.99      7.00088e-66         -179.99                1         54.0383
50.581                         1         53.9733      7.00088e-66         -179.99      7.00088e-66         -179.99                1          53.971
50.588                         1          53.906      7.00088e-66         -179.99      7.00088e-66         -179.99                1         53.9037
50.595                         1         53.8387      7.00089e-66         -179.99      7.00089e-66         -179.99                1         53.8365
50.602                         1         53.7715      7.00089e-66         -179.99      7.00089e-66         -179.99                1         53.7692
50.609                         1         53.7042      7.00089e-66         -179.99      7.00089e-66         -179.99                1         53.7019
50.616                         1         53.6369      7.00089e-66         -179.99      7.00089e-66         -179.99                1         53.6347
50.623                         1         53.5697      7.00089e-66         -179.99      7.00089e-66         -179.99                1         53.5674
50.63                          1         53.5024      7.00089e-66         -179.99      7.00089e-66         -179.99                1         53.5001
50.637                         1         53.4351      7.00089e-66         -179.99      7.00089e-66         -179.99                1         53.4329
50.644                         1         53.3679       7.0009e-66         -179.99       7.0009e-66         -179.99                1         53.3656
50.651                         1         53.3006       7.0009e-66         -179.99       7.0009e-66         -179.99                1         53.2983
50.658                         1         53.2333       7.0009e-66         -179.99       7.0009e-66         -179.99                1         53.2311
50.665                         1         53.1661       7.0009e-66         -179.99       7.0009e-66         -179.99                1         53.1638
50.672                         1         53.0988       7.0009e-66         -179.99       7.0009e-66         -179.99                1         53.0965
50.679                         1         53.0315       7.0009e-66         -179.99       7.0009e-66         -179.99                1         53.0293
50.686                         1         52.9643       7.0009e-66         -179.99       7.0009e-66         -179.99                1          52.962
50.693                         1          52.897      7.00091e-66         -179.99      7.00091e-66         -179.99                1         52.8947
50.7                           1         52.8297      7.00091e-66         -179.99      7.00091e-66         -179.99                1         52.8275
50.707                         1         52.7625      7.00091e-66         -179.99      7.00091e-66         -179.99                1         52.7602
50.714                         1         52.6952      7.00091e-66         -179.99      7.00091e-66         -179.99                1         52.6929
50.721                         1         52.6279      7.00091e-66         -179.99      7.00091e-66         -179.99                1         52.6257
50.728                         1         52.5607      7.00091e-66         -179.99      7.00091e-66         -179.99                1         52.5584
50.735                         1         52.4934      7.00091e-66         -179.99      7.00091e-66         -179.99                1         52.4911
50.742                         1         52.4261      7.00092e-66         -179.99      7.00092e-66         -179.99                1         52.4239
50.749                         1         52.3589      7.00092e-66         -179.99      7.00092e-66         -179.99                1         52.3566
50.756                         1         52.2916      7.00092e-66         -179.99      7.00092e-66         -179.99                1         52.2893
50.763                         1         52.2243      7.00092e-66         -179.99      7.00092e-66         -179.99                1         52.2221
50.77                          1         52.1571      7.00092e-66         -179.99      7.00092e-66         -179.99                1         52.1548
50.777                         1         52.0898      7.00092e-66         -179.99      7.00092e-66         -179.99                1         52.0875
50.784                         1         52.0225      7.00092e-66         -179.99      7.00092e-66         -179.99                1         52.0203
50.791                         1         51.9553      7.00093e-66         -179.99      7.00093e-66         -179.99                1          51.953
50.798                         1          51.888      7.00093e-66         -179.99      7.00093e-66         -179.99                1         51.8857
50.805                         1         51.8207      7.00093e-66         -179.99      7.00093e-66         -179.99                1         51.8185
50.812                         1         51.7535      7.00093e-66         -179.99      7.00093e-66         -179.99                1         51.7512
50.819                         1         51.6862      7.00093e-66         -179.99      7.00093e-66         -179.99                1         51.6839
50.826                         1         51.6189      7.00093e-66         -179.99      7.00093e-66         -179.99                1         51.6166
50.833                         1         51.5517      7.00093e-66         -179.99      7.00093e-66         -179.99                1         51.5494
50.84                          1         51.4844      7.00093e-66         -179.99      7.00093e-66         -179.99                1         51.4821
50.847                         1         51.4171      7.00094e-66         -179.99      7.00094e-66         -179.99                1         51.4148
50.854                         1         51.3499      7.00094e-66         -179.99      7.00094e-66         -179.99                1         51.3476
50.861                         1         51.2826      7.00094e-66         -179.99      7.00094e-66         -179.99                1         51.2803
50.868                         1         51.2153      7.00094e-66         -179.99      7.00094e-66         -179.99                1          51.213
50.875                         1         51.1481                0               0                0               0                1         51.1458
50.882                         1         51.0808      7.00094e-66         -179.99      7.00094e-66         -179.99                1         51.0785
50.889                         1         51.0135      7.00094e-66         -179.99      7.00094e-66         -179.99                1         51.0112
50.896                         1         50.9463      7.00095e-66         -179.99      7.00095e-66         -179.99                1          50.944
50.903                         1          50.879      7.00095e-66         -179.99      7.00095e-66         -179.99                1         50.8767
50.91                          1         50.8117      7.00095e-66         -179.99      7.00095e-66         -179.99                1         50.8094
50.917                         1         50.7445      7.00095e-66         -179.99      7.00095e-66         -179.99                1         50.7422
50.924                         1         50.6772      7.00095e-66         -179.99      7.00095e-66         -179.99                1         50.6749
50.931                         1         50.6099      7.00095e-66        -179.991      7.00095e-66        -179.991                1         50.6076
50.938                         1         50.5427      7.00095e-66        -179.991      7.00095e-66        -179.991                1         50.5404
50.945                         1         50.4754      7.00096e-66        -179.991      7.00096e-66        -179.991                1         50.4731
50.952                         1         50.4081      7.00096e-66        -179.991      7.00096e-66        -179.991                1         50.4058
50.959                         1         50.3409      7.00096e-66        -179.991      7.00096e-66        -179.991                1         50.3386
50.966                         1         50.2736      7.00096e-66        -179.991      7.00096e-66        -179.991                1         50.2713
50.973                         1         50.2063      7.00096e-66        -179.991      7.00096e-66        -179.991                1          50.204
50.98                          1         50.1391      7.00096e-66        -179.991      7.00096e-66        -179.991                1         50.1368
50.987                         1         50.0718      7.00096e-66        -179.991      7.00096e-66        -179.991                1         50.0695
50.994                         1         50.0045      7.00096e-66        -179.991      7.00096e-66        -179.991                1         50.0022
51.001                         1         49.9373      7.00097e-66        -179.991      7.00097e-66        -179.991                1          49.935
51.008                         1           49.87      7.00097e-66        -179.991      7.00097e-66        -179.991                1         49.8677
51.015                         1         49.8027      7.00097e-66        -179.991      7.00097e-66        -179.991                1         49.8004
51.022                         1         49.7355      7.00097e-66        -179.991      7.00097e-66        -179.991                1         49.7332
51.029                         1         49.6682      7.00097e-66        -179.991      7.00097e-66        -179.991                1         49.6659
51.036                         1         49.6009      7.00097e-66        -179.991      7.00097e-66        -179.991                1         49.5986
51.043                         1         49.5337      7.00097e-66        -179.991      7.00097e-66        -179.991                1         49.5313
51.05                          1         49.4664      7.00098e-66        -179.991      7.00098e-66        -179.991                1         49.4641
51.057                         1         49.3991      7.00098e-66        -179.991      7.00098e-66        -179.991                1         49.3968
51.064                         1         49.3319      7.00098e-66        -179.991      7.00098e-66        -179.991                1         49.3295
51.071                         1         49.2646      7.00098e-66        -179.991      7.00098e-66        -179.991                1         49.2623
51.078                         1         49.1973      7.00098e-66        -179.991      7.00098e-66        -179.991                1          49.195
51.085                         1         49.1301      7.00098e-66        -179.991      7.00098e-66        -179.991                1         49.1277
51.092                         1         49.0628      7.00098e-66        -179.991      7.00098e-66        -179.991                1         49.0605
51.099                         1         48.9955      6.00084e-66        -179.991      6.00084e-66        -179.991                1         48.9932
51.106                         1         48.9283      6.00085e-66        -179.991      6.00085e-66        -179.991                1         48.9259
51.113                         1          48.861      6.00085e-66        -179.991      6.00085e-66        -179.991                1         48.8587
51.12                          1         48.7937      6.00085e-66        -179.991      6.00085e-66        -179.991                1         48.7914
51.127                         1         48.7265      6.00085e-66        -179.991      6.00085e-66        -179.991                1         48.7241
51.134                         1         48.6592      6.00085e-66        -179.991      6.00085e-66        -179.991                1         48.6569
51.141                         1         48.5919      6.00085e-66        -179.991      6.00085e-66        -179.991                1         48.5896
51.148                         1         48.5247      6.00085e-66        -179.991      6.00085e-66        -179.991                1         48.5223
51.155                         1         48.4574      6.00085e-66        -179.991      6.00085e-66        -179.991                1         48.4551
51.162                         1         48.3901      6.00085e-66        -179.991      6.00085e-66        -179.991                1         48.3878
51.169                         1         48.3229      6.00086e-66        -179.991      6.00086e-66        -179.991                1         48.3205
51.176                         1         48.2556      6.00086e-66        -179.991      6.00086e-66        -179.991                1         48.2533
51.183                         1         48.1883      6.00086e-66        -179.991      6.00086e-66        -179.991                1          48.186
51.19                          1         48.1211      6.00086e-66        -179.991      6.00086e-66        -179.991                1         48.1187
51.197                         1         48.0538      6.00086e-66        -179.991      6.00086e-66        -179.991                1         48.0515
51.204                         1         47.9865      6.00086e-66        -179.991      6.00086e-66        -179.991                1         47.9842
51.211                         1         47.9193      6.00086e-66        -179.991      6.00086e-66        -179.991                1         47.9169
51.218                         1          47.852      6.00086e-66        -179.991      6.00086e-66        -179.991                1         47.8496
51.225                         1         47.7847      6.00086e-66        -179.991      6.00086e-66        -179.991                1         47.7824
51.232                         1         47.7175      6.00087e-66        -179.991      6.00087e-66        -179.991                1         47.7151
51.239                         1         47.6502      6.00087e-66        -179.991      6.00087e-66        -179.991                1         47.6478
51.246                         1         47.5829      6.00087e-66        -179.991      6.00087e-66        -179.991                1         47.5806
51.253                         1         47.5157      6.00087e-66        -179.991      6.00087e-66        -179.991                1         47.5133
51.26                          1         47.4484      6.00087e-66        -179.991      6.00087e-66        -179.991                1          47.446
51.267                         1         47.3811      6.00087e-66        -179.991      6.00087e-66        -179.991                1         47.3788
51.274                         1         47.3139      6.00087e-66        -179.991      6.00087e-66        -179.991                1         47.3115
51.281                         1         47.2466      6.00087e-66        -179.991      6.00087e-66        -179.991                1         47.2442
51.288                         1         47.1793      6.00087e-66        -179.991      6.00087e-66        -179.991                1          47.177
51.295                         1         47.1121      6.00088e-66        -179.991      6.00088e-66        -179.991                1         47.1097
51.302                         1         47.0448      6.00088e-66        -179.991      6.00088e-66        -179.991                1         47.0424
51.309                         1         46.9775      6.00088e-66        -179.991      6.00088e-66        -179.991                1         46.9752
51.316                         1         46.9103      6.00088e-66        -179.991      6.00088e-66        -179.991                1         46.9079
51.323                         1          46.843      6.00088e-66        -179.991      6.00088e-66        -179.991                1         46.8406
51.33                          1         46.7757      6.00088e-66        -179.991      6.00088e-66        -179.991                1         46.7734
51.337                         1         46.7085      6.00088e-66        -179.991      6.00088e-66        -179.991                1         46.7061
51.344                         1         46.6412      6.00088e-66        -179.991      6.00088e-66        -179.991                1         46.6388
51.351                         1         46.5739      6.00088e-66        -179.991      6.00088e-66        -179.991                1         46.5715
51.358                         1         46.5067      6.00089e-66        -179.991      6.00089e-66        -179.991                1         46.5043
51.365                         1         46.4394      6.00089e-66        -179.991      6.00089e-66        -179.991                1          46.437
51.372                         1         46.3721      6.00089e-66        -179.991      6.00089e-66        -179.991                1         46.3697
51.379                         1         46.3049      6.00089e-66        -179.991      6.00089e-66        -179.991                1         46.3025