! TOUCHSTONE file generated by CST MICROWAVE STUDIO
! Date and time: Fri Feb 16 17:58:34 2024
! Project name: metal_rotado.cst
! Parameters = {angX=1.5; angY=2}
! Header version: 2018
! Port assignment regex: !\s*Touchstone port\s*([0-9]+)\s*=\s*(CST MWS port|CST DS port)\s*([0-9]+|Zmin|Zmax)\s*\(\"(.*)\"\)(\s*mode\s*([0-9]+))?.*
! Touchstone port assignment:
! Touchstone port 1 = CST MWS port 1 ("")
! Touchstone port 2 = CST MWS port 2 ("")
# GHz S MA R 376.7
75                      0.997967        -176.271        0.0638178         93.7138        0.0636553         93.7311          0.99797        -176.255
75.035                  0.997991        -176.285        0.0634509         93.7173         0.063351         93.6993         0.998062        -176.268
75.07                   0.998015          -176.3        0.0630876         93.7208        0.0630488         93.6679         0.998152        -176.281
75.105                  0.998038        -176.315        0.0627276         93.7242        0.0627488         93.6368         0.998243        -176.294
75.14                   0.998061        -176.329        0.0623709         93.7275        0.0624507         93.6061         0.998333        -176.307
75.175                  0.998085        -176.344        0.0620176         93.7308        0.0621547         93.5757         0.998423         -176.32
75.21                   0.998107        -176.358        0.0616675          93.734        0.0618607         93.5456         0.998513        -176.333
75.245                   0.99813        -176.373        0.0613205         93.7372        0.0615686         93.5159         0.998603        -176.346
75.28                   0.998152        -176.387        0.0609766         93.7403        0.0612784         93.4865         0.998692        -176.359
75.315                  0.998174        -176.401        0.0606357         93.7433        0.0609901         93.4575         0.998781        -176.372
75.35                   0.998196        -176.416        0.0602978         93.7463        0.0607037         93.4288          0.99887        -176.385
75.385                  0.998218         -176.43        0.0599628         93.7493         0.060419         93.4003         0.998958        -176.398
75.42                    0.99824        -176.445        0.0596306         93.7522        0.0601362         93.3722         0.999047        -176.411
75.455                  0.998261        -176.459        0.0593012          93.755        0.0598551         93.3444         0.999135        -176.425
75.49                   0.998282        -176.473        0.0589746         93.7578        0.0595757         93.3169         0.999223        -176.438
75.525                  0.998303        -176.488        0.0586506         93.7606        0.0592979         93.2897          0.99931        -176.451
75.56                   0.998323        -176.502        0.0583292         93.7634        0.0590219         93.2628         0.999398        -176.464
75.595                  0.998343        -176.516        0.0580104         93.7661        0.0587474         93.2362         0.999485        -176.478
75.63                   0.998364         -176.53        0.0576941         93.7688        0.0584745         93.2098         0.999572        -176.491
75.665                  0.998383        -176.545        0.0573803         93.7715        0.0582032         93.1837         0.999658        -176.504
75.7                    0.998403        -176.559        0.0570689         93.7741        0.0579334         93.1579         0.999745        -176.518
75.735                  0.998423        -176.573        0.0567598         93.7767        0.0576651         93.1324         0.999831        -176.531
75.77                   0.998442        -176.587         0.056453         93.7794        0.0573982         93.1071         0.999917        -176.545
75.805                  0.998461        -176.602        0.0561485         93.7819        0.0571328         93.0821                1        -176.558
75.84                    0.99848        -176.616        0.0558462         93.7845        0.0568688         93.0573                1        -176.572
75.875                  0.998499         -176.63         0.055546         93.7871        0.0566062         93.0328                1        -176.585
75.91                   0.998517        -176.644         0.055248         93.7897        0.0563449         93.0085                1        -176.599
75.945                  0.998535        -176.658         0.054952         93.7922        0.0560849         92.9845                1        -176.613
75.98                   0.998554        -176.673         0.054658         93.7948        0.0558262         92.9607                1        -176.626
76.015                  0.998572        -176.687         0.054366         93.7974        0.0555688         92.9371                1         -176.64
76.05                   0.998589        -176.701        0.0540759            93.8        0.0553125         92.9138                1        -176.654
76.085                  0.998607        -176.715        0.0537877         93.8025        0.0550575         92.8907                1        -176.668
76.12                   0.998624        -176.729        0.0535014         93.8051        0.0548037         92.8678                1        -176.682
76.155                  0.998641        -176.743        0.0532168         93.8077         0.054551         92.8451                1        -176.696
76.19                   0.998658        -176.757         0.052934         93.8104        0.0542994         92.8226                1         -176.71
76.225                  0.998675        -176.771        0.0526529          93.813        0.0540489         92.8004                1        -176.724
76.26                   0.998692        -176.786        0.0523735         93.8157        0.0537995         92.7783                1        -176.738
76.295                  0.998708          -176.8        0.0520957         93.8184        0.0535511         92.7565                1        -176.752
76.33                   0.998725        -176.814        0.0518194         93.8211        0.0533037         92.7348                1        -176.766
76.365                  0.998741        -176.828        0.0515448         93.8239        0.0530572         92.7134                1        -176.781
76.4                    0.998757        -176.842        0.0512716         93.8267        0.0528117         92.6921                1        -176.795
76.435                  0.998773        -176.856        0.0509998         93.8295        0.0525672          92.671                1         -176.81
76.47                   0.998788         -176.87        0.0507295         93.8324        0.0523235         92.6501                1        -176.824
76.505                  0.998804        -176.884        0.0504606         93.8354        0.0520807         92.6294                1        -176.839
76.54                   0.998819        -176.898         0.050193         93.8384        0.0518387         92.6089                1        -176.853
76.575                  0.998834        -176.912        0.0499267         93.8414        0.0515975         92.5885                1        -176.868
76.61                   0.998849        -176.927        0.0496617         93.8445        0.0513572         92.5683                1        -176.883
76.645                  0.998864        -176.941        0.0493979         93.8477        0.0511175         92.5482                1        -176.898
76.68                   0.998879        -176.955        0.0491353          93.851        0.0508786         92.5283                1        -176.913
76.715                  0.998893        -176.969        0.0488738         93.8543        0.0506404         92.5086                1        -176.928
76.75                   0.998908        -176.983        0.0486135         93.8577        0.0504029          92.489                1        -176.943
76.785                  0.998922        -176.997        0.0483542         93.8612         0.050166         92.4696                1        -176.958
76.82                   0.998936        -177.011        0.0480959         93.8647        0.0499297         92.4503                1        -176.973
76.855                   0.99895        -177.025        0.0478386         93.8684         0.049694         92.4312                1        -176.989
76.89                   0.998964         -177.04        0.0475823         93.8722        0.0494588         92.4122                1        -177.004
76.925                  0.998978        -177.054        0.0473269          93.876        0.0492242         92.3934                1         -177.02
76.96                   0.998991        -177.068        0.0470724           93.88        0.0489901         92.3746                1        -177.036
76.995                  0.999005        -177.082        0.0468187         93.8841        0.0487564         92.3561                1        -177.051
77.03                   0.999018        -177.096        0.0465658         93.8883        0.0485232         92.3376                1        -177.067
77.065                  0.999031        -177.111        0.0463136         93.8926        0.0482904         92.3192                1        -177.083
77.1                    0.999044        -177.125        0.0460622         93.8971         0.048058          92.301                1          -177.1
77.135                  0.999057        -177.139        0.0458115         93.9017        0.0478259         92.2829                1        -177.116
77.17                    0.99907        -177.153        0.0455614         93.9064        0.0475942         92.2649                1        -177.132
77.205                  0.999083        -177.168         0.045312         93.9113        0.0473627          92.247                1        -177.149
77.24                   0.999095        -177.182        0.0450631         93.9164        0.0471315         92.2292                1        -177.166
77.275                  0.999108        -177.196        0.0448147         93.9216        0.0469005         92.2116                1        -177.182
77.31                    0.99912        -177.211        0.0445668          93.927        0.0466697          92.194                1        -177.199
77.345                  0.999132        -177.225        0.0443193         93.9326        0.0464391         92.1765                1        -177.217
77.38                   0.999144         -177.24        0.0440723         93.9384        0.0462086         92.1591                1        -177.234
77.415                  0.999156        -177.254        0.0438256         93.9444        0.0459782         92.1418                1        -177.251
77.45                   0.999168        -177.269        0.0435793         93.9505        0.0457479         92.1246                1        -177.269
77.485                   0.99918        -177.283        0.0433332          93.957        0.0455176         92.1074                1        -177.287
77.52                   0.999192        -177.298        0.0430874         93.9636        0.0452873         92.0903                1        -177.305
77.555                  0.999203        -177.312        0.0428418         93.9705         0.045057         92.0733                1        -177.323
77.59                   0.999215        -177.327        0.0425964         93.9776        0.0448265         92.0564                1        -177.341
77.625                  0.999226        -177.341         0.042351          93.985         0.044596         92.0396                1        -177.359
77.66                   0.999237        -177.356        0.0421057         93.9927        0.0443653         92.0228                1        -177.378
77.695                  0.999248        -177.371        0.0418605         94.0006        0.0441345          92.006                1        -177.397
77.73                   0.999259        -177.386        0.0416152         94.0089        0.0439034         91.9894                1        -177.416
77.765                   0.99927          -177.4        0.0413699         94.0174         0.043672         91.9727                1        -177.435
77.8                    0.999281        -177.415        0.0411245         94.0263        0.0434404         91.9561                1        -177.455
77.835                  0.999292         -177.43        0.0408789         94.0356        0.0432084         91.9396                1        -177.474
77.87                   0.999303        -177.445        0.0406331         94.0452         0.042976         91.9231                1        -177.494
77.905                  0.999314         -177.46         0.040387         94.0552        0.0427432         91.9066                1        -177.514
77.94                   0.999324        -177.475        0.0401407         94.0656        0.0425099         91.8902                1        -177.534
77.975                  0.999335         -177.49        0.0398939         94.0764        0.0422762         91.8738                1        -177.555
78.01                   0.999345        -177.505        0.0396468         94.0876        0.0420418         91.8574                1        -177.576
78.045                  0.999355        -177.521        0.0393992         94.0993        0.0418069          91.841                1        -177.597
78.08                   0.999366        -177.536        0.0391511         94.1114        0.0415713         91.8247                1        -177.618
78.115                  0.999376        -177.551        0.0389025         94.1241         0.041335         91.8083                1        -177.639
78.15                   0.999386        -177.567        0.0386532         94.1373        0.0410979          91.792                1        -177.661
78.185                  0.999396        -177.582        0.0384032          94.151        0.0408601         91.7756                1        -177.682
78.22                   0.999406        -177.598        0.0381525         94.1654        0.0406213         91.7593                1        -177.704
78.255                  0.999416        -177.613        0.0379009         94.1803        0.0403817         91.7429                1        -177.726
78.29                   0.999426        -177.629        0.0376485         94.1959        0.0401411         91.7265                1        -177.749
78.325                  0.999436        -177.645        0.0373952         94.2121        0.0398995         91.7101                1        -177.771
78.36                   0.999445        -177.661        0.0371409          94.229        0.0396569         91.6937                1        -177.794
78.395                  0.999455        -177.677        0.0368855         94.2467         0.039413         91.6772                1        -177.817
78.43                   0.999465        -177.693         0.036629         94.2652         0.039168         91.6607                1         -177.84
78.465                  0.999475        -177.709        0.0363713         94.2845        0.0389217         91.6442                1        -177.863
78.5                    0.999484        -177.725        0.0361123         94.3047        0.0386741         91.6276                1        -177.886
78.535                  0.999494        -177.741         0.035852         94.3258         0.038425          91.611                1        -177.909
78.57                   0.999503        -177.758        0.0355902         94.3478        0.0381745         91.5943                1        -177.933
78.605                  0.999513        -177.774         0.035327         94.3709        0.0379224         91.5775                1        -177.956
78.64                   0.999522        -177.791        0.0350621         94.3951        0.0376687         91.5606                1         -177.98
78.675                  0.999532        -177.808        0.0347956         94.4204        0.0374134         91.5437                1        -178.003
78.71                   0.999541        -177.825        0.0345273         94.4469        0.0371562         91.5267                1        -178.027
78.745                   0.99955        -177.842        0.0342571         94.4747        0.0368971         91.5096                1         -178.05
78.78                    0.99956        -177.859         0.033985         94.5039        0.0366361         91.4923                1        -178.073
78.815                  0.999569        -177.876        0.0337109         94.5345        0.0363731          91.475                1        -178.097
78.85                   0.999578        -177.893        0.0334346         94.5666        0.0361079         91.4575                1         -178.12
78.885                  0.999588        -177.911        0.0331561         94.6004        0.0358405           91.44                1        -178.143
78.92                   0.999597        -177.929        0.0328752         94.6359        0.0355707         91.4222                1        -178.166
78.955                  0.999606        -177.947        0.0325919         94.6732        0.0352985         91.4044                1        -178.189
78.99                   0.999615        -177.965        0.0323059         94.7125        0.0350238         91.3863                1        -178.212
79.025                  0.999625        -177.983        0.0320173         94.7539        0.0347463         91.3681                1        -178.234
79.06                   0.999634        -178.001        0.0317258         94.7976        0.0344661         91.3497                1        -178.256
79.095                  0.999643         -178.02        0.0314314         94.8436         0.034183         91.3312                1        -178.278
79.13                   0.999652        -178.038        0.0311339         94.8922        0.0338968         91.3124                1          -178.3
79.165                  0.999662        -178.057        0.0308332         94.9435        0.0336074         91.2934                1        -178.322
79.2                    0.999671        -178.077        0.0305291         94.9977        0.0333148         91.2742                1        -178.343
79.235                   0.99968        -178.096        0.0302215         95.0551        0.0330186         91.2547                1        -178.364
79.27                    0.99969        -178.115        0.0299102         95.1159        0.0327189          91.235                1        -178.385
79.305                  0.999699        -178.135         0.029595         95.1803        0.0324153          91.215                1        -178.405
79.34                   0.999708        -178.155        0.0292759         95.2487        0.0321078         91.1947                1        -178.425
79.375                  0.999718        -178.176        0.0289526         95.3213        0.0317962         91.1742                1        -178.446
79.41                   0.999727        -178.196        0.0286248         95.3985        0.0314803         91.1533                1        -178.465
79.445                  0.999737        -178.217        0.0282926         95.4807        0.0311598          91.132                1        -178.485
79.48                   0.999746        -178.238        0.0279556         95.5682        0.0308347         91.1104                1        -178.505
79.515                  0.999756        -178.259        0.0276136         95.6616        0.0305046         91.0884                1        -178.524
79.55                   0.999766        -178.281        0.0272665         95.7614        0.0301693         91.0661                1        -178.544
79.585                  0.999775        -178.303        0.0269139         95.8681        0.0298286         91.0432                1        -178.563
79.62                   0.999785        -178.326        0.0265558         95.9824        0.0294823           91.02                1        -178.583
79.655                  0.999795        -178.348        0.0261918          96.105        0.0291301         90.9962                1        -178.602
79.69                   0.999805        -178.371        0.0258217         96.2366        0.0287717         90.9719                1        -178.621
79.725                  0.999815        -178.395        0.0254452         96.3783        0.0284068         90.9471                1        -178.641
79.76                   0.999825        -178.419        0.0250621         96.5309         0.028035         90.9217                1        -178.661
79.795                  0.999835        -178.443        0.0246722         96.6956        0.0276562         90.8957                1        -178.681
79.83                   0.999845        -178.468        0.0242751         96.8738        0.0272698          90.869                1        -178.701
79.865                  0.999855        -178.493        0.0238706         97.0668        0.0268756         90.8417                1        -178.721
79.9                    0.999865        -178.518        0.0234584         97.2763        0.0264732         90.8136                1        -178.742
79.935                  0.999876        -178.545        0.0230383         97.5042         0.026062         90.7847                1        -178.764
79.97                   0.999886        -178.571        0.0226099         97.7526        0.0256417         90.7549                1        -178.785
80.005                  0.999897        -178.599        0.0221731         98.0241        0.0252119         90.7242                1        -178.807
80.04                   0.999908        -178.626        0.0217275         98.3214        0.0247719         90.6926                1         -178.83
80.075                  0.999918        -178.655        0.0212729         98.6478        0.0243213         90.6599                1        -178.853
80.11                   0.999929        -178.684        0.0208092         99.0071        0.0238594          90.626                1        -178.877
80.145                   0.99994        -178.714        0.0203363         99.4037        0.0233857         90.5909         0.999984        -178.902
80.18                   0.999952        -178.744        0.0198539         99.8426        0.0228995         90.5545         0.999941        -178.927
80.215                  0.999963        -178.776        0.0193623          100.33        0.0224001         90.5167         0.999903        -178.953
80.25                   0.999974        -178.808        0.0188614         100.872        0.0218866         90.4772         0.999868         -178.98
80.285                  0.999986        -178.841        0.0183515         101.478        0.0213584         90.4361         0.999838        -179.008
80.32                   0.999997        -178.875        0.0178332         102.156        0.0208145          90.393         0.999812        -179.037
80.355                         1        -178.909        0.0173071         102.918         0.020254         90.3479         0.999789        -179.067
80.39                          1        -178.945        0.0167744         103.777        0.0196758         90.3005          0.99977        -179.098
80.425                         1        -178.982        0.0162364         104.746        0.0190789         90.2505         0.999754         -179.13
80.46                          1         -179.02        0.0156952         105.844        0.0184619         90.1976         0.999742        -179.163
80.495                         1        -179.059        0.0151535         107.089        0.0178237         90.1415         0.999732        -179.198
80.53                          1          -179.1        0.0146149         108.502        0.0171627         90.0817         0.999725        -179.234
80.565                         1        -179.142        0.0140839         110.105        0.0164775         90.0177         0.999721        -179.271
80.6                           1        -179.186        0.0135663         111.921        0.0157664         89.9488         0.999719         -179.31
80.635                         1        -179.231        0.0130691         113.969        0.0150274         89.8743          0.99972        -179.351
80.67                          1        -179.278        0.0126006         116.261        0.0142586         89.7929         0.999722        -179.394
80.705                         1        -179.326        0.0121701         118.796        0.0134578         89.7034         0.999726        -179.439
80.74                          1        -179.377        0.0117872         121.553        0.0126224         89.6039         0.999732        -179.485
80.775                         1         -179.43        0.0114601         124.481        0.0117498         89.4918         0.999739        -179.534
80.81                          1        -179.485        0.0111935         127.491         0.010837         89.3635         0.999748        -179.586
80.845                         1        -179.542        0.0109854         130.461       0.00988072         89.2136         0.999758         -179.64
80.88                          1        -179.603        0.0108232         133.239       0.00887717         89.0338         0.999768        -179.697
80.915                         1        -179.666        0.0106806         135.673       0.00782225         88.8105         0.999779        -179.757
80.95                          1        -179.732        0.0105156         137.645       0.00671138         88.5194         0.999791         -179.82
80.985                         1        -179.802        0.0102724         139.105       0.00553939         88.1125         0.999803        -179.887
81.02                          1        -179.876       0.00988765         140.117       0.00430059         87.4798         0.999815        -179.958
81.055                         1        -179.954       0.00930067         140.893        0.0029888         86.2998         0.999826         179.967
81.09                          1         179.963       0.00846767         141.855       0.00159893         83.0597         0.999837         179.887
81.125                         1         179.875       0.00737621         143.756      0.000214931         28.2309         0.999846         179.802
81.16                          1         179.782       0.00606252         148.048       0.00149501        -83.0658         0.999854          179.71
81.195                         1         179.682       0.00465267         157.921       0.00318585        -87.0218         0.999859         179.613
81.23                          1         179.574       0.00351222         -179.74       0.00500622        -88.3615         0.999862         179.508
81.265                         1         179.459       0.00347395        -143.443       0.00696855        -89.0814          0.99986         179.394
81.3                           1         179.335       0.00489816        -116.324       0.00909072         -89.564         0.999854         179.272
81.335                         1           179.2       0.00716074        -103.462        0.0113945        -89.9349         0.999842         179.139
81.37                          1         179.053       0.00986896        -97.4231        0.0139062        -90.2486         0.999822         178.994
81.405                         1         178.893         0.012904        -94.4041        0.0166576        -90.5329         0.999793         178.834
81.44                          1         178.716        0.0162461        -92.8518        0.0196875        -90.8046         0.999751         178.659
81.475                         1         178.521        0.0199174        -92.0786         0.023044         -91.075         0.999692         178.465
81.51                   0.999952         178.304        0.0239661        -91.7507        0.0267874        -91.3531         0.999613         178.249
81.545                  0.999839          178.06        0.0284636        -91.6944        0.0309942         -91.647         0.999505         178.005
81.58                   0.999689         177.784        0.0335072         -91.816        0.0357638        -91.9647         0.999361          177.73
81.615                  0.999489         177.469        0.0392285        -92.0652        0.0412275        -92.3158         0.999166         177.414
81.65                   0.999218         177.103        0.0458068        -92.4174        0.0475633        -92.7117         0.998902         177.047
81.685                  0.998848         176.673        0.0534927        -92.8657        0.0550196        -93.1676         0.998537         176.616
81.72                   0.998329         176.158         0.062649        -93.4177        0.0639564        -93.7052         0.998025         176.099
81.755                  0.997582         175.527         0.073824        -94.0966        0.0749186        -94.3563         0.997285         175.465
81.79                   0.996461         174.729        0.0878968        -94.9481        0.0887801         -95.172         0.996174         174.662
81.825                  0.994684         173.676         0.106387        -96.0573         0.107053        -96.2404         0.994412         173.602
81.86                   0.991619         172.201         0.132209        -97.5924         0.132639        -97.7307         0.991373         172.116
81.895                   0.98558         169.922         0.171851        -99.9348         0.172002        -100.023         0.985385         169.818