! TOUCHSTONE file generated by CST MICROWAVE STUDIO
! Date and time: Fri Feb 16 17:58:32 2024
! Project name: metal_rotado.cst
! Parameters = {angX=1.25; angY=2}
! Header version: 2018
! Port assignment regex: !\s*Touchstone port\s*([0-9]+)\s*=\s*(CST MWS port|CST DS port)\s*([0-9]+|Zmin|Zmax)\s*\(\"(.*)\"\)(\s*mode\s*([0-9]+))?.*
! Touchstone port assignment:
! Touchstone port 1 = CST MWS port 1 ("")
! Touchstone port 2 = CST MWS port 2 ("")
# GHz S MA R 376.7
75                      0.997856        -176.275        0.0654361         93.7216        0.0654314         93.7224         0.997857        -176.281
75.035                  0.997892        -176.316        0.0647738         93.6804        0.0647608          93.682         0.997901        -176.322
75.07                   0.997936        -176.357        0.0641159         93.6397        0.0640953         93.6414         0.997944        -176.362
75.105                  0.997984        -176.396         0.063462         93.5993        0.0634346         93.6004         0.997986        -176.402
75.14                   0.998032        -176.435        0.0628114         93.5593        0.0627782         93.5592         0.998028        -176.441
75.175                   0.99808        -176.474        0.0621639         93.5196        0.0621257         93.5177         0.998069        -176.481
75.21                   0.998126        -176.512        0.0615187         93.4802        0.0614767         93.4759          0.99811         -176.52
75.245                   0.99817         -176.55        0.0608755          93.441        0.0608307          93.434         0.998149        -176.559
75.28                   0.998212        -176.587        0.0602336         93.4021        0.0601872         93.3919         0.998189        -176.598
75.315                  0.998252        -176.625        0.0595924         93.3633        0.0595456         93.3499         0.998228        -176.637
75.35                   0.998291        -176.663        0.0589512         93.3247        0.0589052         93.3081         0.998266        -176.676
75.385                  0.998329          -176.7        0.0583095         93.2861        0.0582653         93.2666         0.998304        -176.714
75.42                   0.998366        -176.738        0.0576664         93.2475        0.0576249         93.2257         0.998341        -176.753
75.455                  0.998402        -176.776        0.0570211          93.209        0.0569831         93.1853         0.998378        -176.792
75.49                   0.998437        -176.814        0.0563729         93.1703        0.0563388         93.1456         0.998415        -176.831
75.525                  0.998472        -176.853        0.0557207         93.1315        0.0556908         93.1065         0.998452        -176.871
75.56                   0.998506        -176.891        0.0550634         93.0926        0.0550379          93.068         0.998488         -176.91
75.595                   0.99854         -176.93        0.0544001         93.0533        0.0543788           93.03         0.998524         -176.95
75.63                   0.998574         -176.97        0.0537293         93.0137        0.0537119         92.9923          0.99856         -176.99
75.665                  0.998608         -177.01        0.0530497         92.9737        0.0530359         92.9547         0.998596        -177.031
75.7                    0.998642        -177.051        0.0523596         92.9332         0.052349         92.9169         0.998632        -177.072
75.735                  0.998676        -177.092        0.0516574          92.892        0.0516494         92.8787         0.998668        -177.114
75.77                    0.99871        -177.134        0.0509409         92.8501        0.0509352         92.8399         0.998705        -177.157
75.805                  0.998745        -177.177        0.0502078         92.8073         0.050204         92.8003         0.998741        -177.201
75.84                   0.998781        -177.222        0.0494554         92.7635        0.0494532         92.7596         0.998778        -177.245
75.875                  0.998817        -177.268        0.0486807         92.7185        0.0486797         92.7176         0.998815        -177.292
75.91                   0.998853        -177.315        0.0478801         92.6721        0.0478801         92.6741         0.998853        -177.339
75.945                  0.998891        -177.364        0.0470492          92.624        0.0470499         92.6287         0.998891        -177.388
75.98                    0.99893        -177.415         0.046183          92.574        0.0461844         92.5812          0.99893         -177.44
76.015                   0.99897        -177.468        0.0452756         92.5217        0.0452775         92.5313         0.998971        -177.493
76.05                   0.999012        -177.524        0.0443196         92.4667        0.0443219         92.4785         0.999012         -177.55
76.085                  0.999055        -177.584        0.0433063         92.4086         0.043309         92.4224         0.999055        -177.609
76.12                   0.999101        -177.647        0.0422246         92.3468        0.0422277         92.3623         0.999099        -177.673
76.155                  0.999148        -177.715        0.0410611         92.2804        0.0410645         92.2976         0.999146        -177.741
76.19                   0.999199        -177.789        0.0397984         92.2086        0.0398022         92.2273         0.999195        -177.815
76.225                  0.999253         -177.87        0.0384145         92.1301        0.0384186         92.1503         0.999247        -177.896
76.26                   0.999311        -177.959        0.0368804         92.0434         0.036885          92.065         0.999302        -177.985
76.295                  0.999373         -178.06        0.0351576         91.9465        0.0351627         91.9694         0.999361        -178.085
76.33                   0.999441        -178.174        0.0331933         91.8366         0.033199         91.8608         0.999425        -178.199
76.365                  0.999515        -178.306        0.0309139         91.7098        0.0309204         91.7356         0.999495        -178.331
76.4                    0.999596        -178.462        0.0282127         91.5609        0.0282202         91.5885         0.999571        -178.488
76.435                  0.999685        -178.651        0.0249294         91.3822         0.024938         91.4123         0.999654        -178.677
76.47                   0.999782        -178.889        0.0208113         91.1632        0.0208215         91.1974         0.999744        -178.914
76.505                  0.999884        -179.198        0.0154364         90.8925        0.0154485          90.935         0.999837        -179.223
76.54                   0.999977        -179.622       0.00804115         90.6049       0.00805609         90.6762         0.999919        -179.647
76.575                         1          179.75       0.00291026        -91.1031       0.00289143        -91.2663         0.999942         179.726
76.61                   0.999817         178.712        0.0210281        -91.4599        0.0210025        -91.4713         0.999722          178.69
76.645                  0.998442         176.637        0.0572705          -93.47         0.057232         -93.465         0.998306         176.617
76.68                   0.986225         170.314         0.167055        -99.7783         0.166984        -99.7622         0.985964         170.304
76.715                  0.234322        -103.326         0.972211          166.31         0.972743           166.3         0.234515        -103.902
76.75                   0.971392        -166.384         0.237496         103.597         0.237433         103.594         0.971404        -166.425
76.785                   0.98917        -171.689         0.146504         98.2873         0.146469         98.2903         0.989137        -171.723
76.82                   0.993449         -173.57         0.113925         96.4076         0.113901         96.4127         0.993384        -173.601
76.855                  0.995237        -174.539        0.0971071         95.4405        0.0970897         95.4466         0.995145        -174.569
76.89                   0.996195        -175.134        0.0867649         94.8467        0.0867514         94.8532         0.996077        -175.163
76.925                  0.996787        -175.541        0.0797058         94.4415         0.079695         94.4482         0.996643        -175.569
76.96                   0.997189         -175.84        0.0745385         94.1449        0.0745297         94.1515         0.997018        -175.866
76.995                  0.997481         -176.07        0.0705602         93.9164         0.070553         93.9227          0.99728        -176.095
77.03                   0.997703        -176.254        0.0673774         93.7334        0.0673714         93.7394         0.997472        -176.278
77.065                  0.997879        -176.406        0.0647527         93.5823        0.0647477         93.5879         0.997617        -176.428
77.1                    0.998022        -176.535        0.0625342         93.4543        0.0625301         93.4595         0.997734        -176.555
77.135                  0.998142        -176.647        0.0606204         93.3437        0.0606169         93.3484         0.997836        -176.663
77.17                   0.998245        -176.745        0.0589404         93.2464        0.0589376         93.2505         0.997934        -176.758
77.205                  0.998334        -176.833        0.0574437         93.1595        0.0574413         93.1631         0.998035        -176.842
77.24                   0.998412        -176.912        0.0560927         93.0809        0.0560908          93.084         0.998143        -176.918
77.275                  0.998482        -176.985        0.0548593          93.009        0.0548577         93.0114         0.998254        -176.988
77.31                   0.998546        -177.052        0.0537216         92.9425        0.0537202         92.9443         0.998364        -177.054
77.345                  0.998604        -177.115        0.0526625         92.8803        0.0526614         92.8816         0.998468        -177.116
77.38                   0.998657        -177.174        0.0516683         92.8219        0.0516673         92.8226         0.998562        -177.175
77.415                  0.998707         -177.23        0.0507278         92.7664        0.0507268         92.7666         0.998645        -177.231
77.45                   0.998754        -177.284        0.0498317         92.7135        0.0498307         92.7131         0.998718        -177.285
77.485                  0.998798        -177.335        0.0489722         92.6625        0.0489711         92.6617         0.998782        -177.336
77.52                    0.99884        -177.385        0.0481425         92.6132        0.0481412         92.6119         0.998839        -177.387
77.555                   0.99888        -177.433        0.0473366         92.5653        0.0473351         92.5634          0.99889        -177.435
77.59                   0.998918         -177.48        0.0465492         92.5183        0.0465474          92.516         0.998937        -177.483
77.625                  0.998955        -177.527        0.0457754          92.472        0.0457732         92.4693          0.99898         -177.53
77.66                   0.998992        -177.573        0.0450105         92.4261        0.0450078         92.4231          0.99902        -177.576
77.695                  0.999027        -177.618        0.0442499         92.3805        0.0442466         92.3772         0.999058        -177.622
77.73                   0.999062        -177.664        0.0434891         92.3348        0.0434851         92.3312         0.999094        -177.668
77.765                  0.999096         -177.71        0.0427233         92.2887        0.0427185         92.2849         0.999129        -177.715
77.8                    0.999131        -177.757        0.0419475          92.242        0.0419418          92.238         0.999164        -177.761
77.835                  0.999165        -177.804        0.0411562         92.1943        0.0411494         92.1903         0.999197        -177.809
77.87                   0.999199        -177.853         0.040343         92.1453         0.040335         92.1413         0.999231        -177.858
77.905                  0.999235        -177.904        0.0395009         92.0945        0.0394915         92.0906         0.999265        -177.909
77.94                    0.99927        -177.956         0.038621         92.0415        0.0386102         92.0378         0.999299        -177.961
77.975                  0.999307        -178.012        0.0376931         91.9856        0.0376805         91.9822         0.999334        -178.017
78.01                   0.999345        -178.071         0.036704          91.926        0.0366895         91.9232          0.99937        -178.075
78.045                  0.999385        -178.134        0.0356371         91.8619        0.0356203         91.8598         0.999408        -178.139
78.08                   0.999428        -178.203        0.0344706         91.7919        0.0344513         91.7907         0.999449        -178.208
78.115                  0.999473         -178.28        0.0331756         91.7142        0.0331533         91.7144         0.999492        -178.284
78.15                   0.999522        -178.366         0.031712         91.6266        0.0316863         91.6285         0.999538         -178.37
78.185                  0.999576        -178.466        0.0300229         91.5256        0.0299932         91.5299          0.99959        -178.469
78.22                   0.999636        -178.583        0.0280246         91.4061        0.0279901         91.4139         0.999647        -178.586
78.255                  0.999704        -178.725         0.025588         91.2604        0.0255475         91.2733         0.999711        -178.728
78.29                   0.999781        -178.904        0.0225026         91.0752        0.0224548         91.0967         0.999785        -178.907
78.325                  0.999868        -179.142        0.0184014         90.8267        0.0183441         90.8646         0.999868        -179.144
78.36                   0.999963        -179.478        0.0125798         90.4624        0.0125096          90.543         0.999957         -179.48
78.395                         1         179.998       0.00349206         89.7064       0.00340318         90.1479                1         179.997
78.43                   0.999977         179.047        0.0130357        -90.8339         0.013154        -91.0272         0.999948         179.049
78.465                  0.998664         176.722        0.0534815        -93.2198        0.0536506        -93.3174         0.998592         176.729
78.5                    0.951562         161.788         0.308435        -108.132         0.308336          -108.2         0.951132         161.862
78.535                  0.973209        -166.923         0.229598         103.078         0.230057         103.085          0.97318        -166.936
78.57                   0.993193        -173.535         0.116233         96.4722         0.116523         96.6261         0.992882        -173.535
78.605                  0.996172          -175.2        0.0874111         94.7947        0.0874059         94.7937         0.996173        -175.211
78.64                   0.997264        -175.974        0.0738122         94.0477        0.0739808         94.0144         0.997268        -175.982
78.675                  0.997814        -176.424        0.0660759         93.5885        0.0661808         93.5635         0.997818         -176.43
78.71                   0.998144        -176.722        0.0609479         93.2877        0.0610245         93.2654         0.998148        -176.728
78.745                  0.998364        -176.936        0.0572625         93.0714        0.0573214          93.051         0.998367        -176.942
78.78                   0.998523          -177.1        0.0544565         92.9063        0.0545029         92.8874         0.998524        -177.105
78.815                  0.998642        -177.231        0.0522259         92.7746        0.0522626         92.7572         0.998643        -177.236
78.85                   0.998737        -177.339        0.0503924         92.6659        0.0504213         92.6498         0.998737        -177.343
78.885                  0.998814        -177.431        0.0488444         92.5737        0.0488667          92.559         0.998814        -177.434
78.92                   0.998878         -177.51        0.0475085         92.4939         0.047525         92.4805         0.998878        -177.513
78.955                  0.998933         -177.58        0.0463345         92.4235        0.0463458         92.4113         0.998932        -177.583
78.99                    0.99898        -177.642        0.0452867         92.3603        0.0452933         92.3495         0.998979        -177.646
79.025                  0.999022        -177.699        0.0443393          92.303        0.0443414         92.2935         0.999021        -177.702
79.06                   0.999059        -177.752        0.0434728         92.2504        0.0434707         92.2422         0.999058        -177.754
79.095                  0.999092          -177.8        0.0426726         92.2017        0.0426665         92.1948         0.999092        -177.803
79.13                   0.999122        -177.846        0.0419271         92.1562        0.0419171         92.1506         0.999123        -177.848
79.165                  0.999149        -177.888        0.0412274         92.1133        0.0412137         92.1092         0.999151         -177.89
79.2                    0.999174        -177.929        0.0405662         92.0728        0.0405488         92.0701         0.999178        -177.931
79.235                  0.999197        -177.968        0.0399377         92.0341        0.0399166         92.0329         0.999202        -177.969
79.27                   0.999219        -178.005         0.039337         91.9971        0.0393123         91.9974         0.999225        -178.006
79.305                  0.999238        -178.041        0.0387602         91.9616        0.0387318         91.9634         0.999247        -178.042
79.34                   0.999257        -178.075        0.0382039         91.9273        0.0381719         91.9307         0.999268        -178.076
79.375                  0.999274        -178.109        0.0376652          91.894        0.0376296         91.8992         0.999288         -178.11
79.41                   0.999291        -178.142        0.0371417         91.8618        0.0371025         91.8686         0.999307        -178.142
79.445                  0.999306        -178.174        0.0366314         91.8303        0.0365886         91.8389         0.999325        -178.174
79.48                    0.99932        -178.205        0.0361323         91.7996        0.0360859           91.81         0.999343        -178.205
79.515                  0.999333        -178.236        0.0356429         91.7695        0.0355928         91.7819          0.99936        -178.236
79.55                   0.999346        -178.266        0.0351618           91.74         0.035108         91.7543         0.999377        -178.266
79.585                  0.999358        -178.296        0.0346877          91.711        0.0346302         91.7273         0.999393        -178.296
79.62                   0.999369        -178.326        0.0342194         91.6825        0.0341582         91.7008         0.999409        -178.325
79.655                  0.999379        -178.355        0.0337559         91.6543         0.033691         91.6748         0.999424        -178.355
79.69                   0.999389        -178.385        0.0332963         91.6265        0.0332276         91.6492          0.99944        -178.384
79.725                  0.999398        -178.414        0.0328396          91.599        0.0327671          91.624         0.999455        -178.413
79.76                   0.999406        -178.443         0.032385         91.5717        0.0323088         91.5991          0.99947        -178.441
79.795                  0.999413        -178.472        0.0319318         91.5447        0.0318518         91.5745         0.999485         -178.47
79.83                    0.99942          -178.5        0.0314793         91.5179        0.0313954         91.5501         0.999499        -178.499
79.865                  0.999426        -178.529        0.0310267         91.4912         0.030939          91.526         0.999514        -178.528
79.9                    0.999432        -178.558        0.0305733         91.4646        0.0304819         91.5021         0.999528        -178.556
79.935                  0.999436        -178.588        0.0301185         91.4381        0.0300234         91.4784         0.999542        -178.585
79.97                    0.99944        -178.617        0.0296616         91.4117        0.0295628         91.4549         0.999557        -178.614
80.005                  0.999444        -178.646        0.0292021         91.3854        0.0290997         91.4314         0.999571        -178.644
80.04                   0.999446        -178.676        0.0287392          91.359        0.0286333         91.4081         0.999586        -178.673
80.075                  0.999448        -178.706        0.0282724         91.3326         0.028163         91.3849           0.9996        -178.703
80.11                   0.999449        -178.736        0.0278009         91.3062        0.0276883         91.3617         0.999615        -178.733
80.145                  0.999449        -178.767        0.0273242         91.2796        0.0272084         91.3385         0.999629        -178.763
80.18                   0.999448        -178.797        0.0268415          91.253        0.0267229         91.3152         0.999644        -178.793
80.215                  0.999447        -178.829        0.0263522         91.2261        0.0262309         91.2919         0.999659        -178.825
80.25                   0.999444        -178.861        0.0258555         91.1991         0.025732         91.2685         0.999674        -178.856
80.285                  0.999441        -178.893        0.0253507         91.1718        0.0252253         91.2449         0.999689        -178.888
80.32                   0.999437        -178.926        0.0248371         91.1441        0.0247102         91.2209         0.999705         -178.92
80.355                  0.999432        -178.959        0.0243137         91.1161        0.0241859         91.1966         0.999721        -178.954
80.39                   0.999426        -178.993        0.0237798         91.0875        0.0236517         91.1718         0.999737        -178.987
80.425                  0.999419        -179.028        0.0232344         91.0584        0.0231068         91.1463         0.999753        -179.022
80.46                   0.999412        -179.064        0.0226764         91.0286        0.0225504         91.1199          0.99977        -179.057
80.495                  0.999404          -179.1         0.022105         90.9979        0.0219816         91.0922         0.999787        -179.093
80.53                   0.999397        -179.138        0.0215189         90.9662        0.0213994          91.063         0.999805        -179.129
80.565                  0.999389        -179.176         0.020917         90.9333        0.0208031         91.0316         0.999823        -179.167
80.6                    0.999382        -179.215        0.0202978         90.8988        0.0201916         90.9974         0.999841        -179.206
80.635                  0.999377        -179.256        0.0196601         90.8625        0.0195638         90.9592         0.999861        -179.245
80.67                   0.999375        -179.298        0.0190021          90.824        0.0189188         90.9157         0.999881        -179.286
80.705                  0.999378        -179.342        0.0183223         90.7826        0.0182555         90.8647         0.999902        -179.328
80.74                   0.999388        -179.387        0.0176187         90.7377        0.0175729         90.8032         0.999923        -179.372
80.775                  0.999411        -179.433        0.0168892         90.6885        0.0168698         90.7265         0.999946        -179.417
80.81                   0.999452        -179.482        0.0161316         90.6337        0.0161453         90.6275          0.99997        -179.463
80.845                  0.999518        -179.532        0.0153433         90.5718        0.0153986         90.4952         0.999996        -179.511
80.88                   0.999618        -179.583        0.0145214         90.5006        0.0146287         90.3114                1        -179.561
80.915                  0.999754        -179.635        0.0136627         90.4174        0.0138349          90.046                1        -179.613
80.95                   0.999918        -179.686        0.0127635          90.318        0.0130161         89.6471                1        -179.667
80.985                         1        -179.735        0.0118195         90.1966        0.0121701         89.0214                1        -179.723
81.02                          1        -179.783        0.0108259         90.0445          0.01129         87.9977                1        -179.782
81.055                         1        -179.832       0.00977706         89.8486        0.0103562         86.2583                1        -179.844
81.09                          1        -179.886       0.00866623         89.5873       0.00931279         83.2463                1        -179.908
81.125                         1        -179.944       0.00748545         89.2234       0.00803071         78.2064                1        -179.976
81.16                          1         179.991       0.00622509         88.6858       0.00634244           70.92                1         179.954
81.195                         1         179.921       0.00487344         87.8174       0.00433828         62.7203                1          179.88
81.23                          1         179.844       0.00341634         86.1748       0.00244305         52.8561                1         179.803
81.265                         1         179.762       0.00183948         81.7133      0.000998344         19.2989                1         179.724
81.3                           1         179.673      0.000298048         15.4243       0.00132153        -65.4939                1         179.643
81.335                         1         179.577       0.00186622        -81.5661       0.00280658        -84.3615                1         179.559
81.37                   0.999989         179.473       0.00399527        -87.3939       0.00450822        -88.9776                1         179.469
81.405                   0.99998          179.36       0.00637944        -90.6411        0.0063794        -90.6404          0.99998          179.36
81.44                   0.999971         179.237       0.00898785        -93.9459       0.00843362         -91.368         0.999624         179.229
81.475                   0.99996         179.104        0.0116501        -97.7375        0.0106929        -91.7377         0.999422         179.081
81.51                   0.999944         178.957        0.0140419        -101.267        0.0131851        -91.9595         0.999335         178.922
81.545                  0.999921         178.795        0.0160527        -102.986        0.0159449        -92.1219         0.999296          178.75
81.58                   0.999887         178.616        0.0180893        -102.376        0.0190159        -92.2665         0.999268         178.564
81.615                  0.999836         178.416        0.0206304        -100.502        0.0224534        -92.4155         0.999228         178.358
81.65                   0.999763         178.191        0.0238771         -98.506        0.0263279        -92.5823         0.999165         178.129
81.685                  0.999661         177.936        0.0278795        -96.8829        0.0307308        -92.7771         0.999068         177.871
81.72                   0.999518         177.644        0.0326909        -95.7161         0.035782        -93.0094         0.998925         177.577
81.755                  0.999317         177.306        0.0384244        -94.9574        0.0416428        -93.2898          0.99872         177.236
81.79                   0.999033         176.909        0.0452719        -94.5434        0.0485339        -93.6316         0.998428         176.837
81.825                   0.99863         176.435        0.0535272        -94.4284         0.056767        -94.0531         0.998009         176.361
81.86                   0.998043         175.858        0.0636316        -94.5893        0.0667958        -94.5805           0.9974         175.782
81.895                  0.997166         175.137        0.0762632        -95.0272        0.0793088        -95.2537         0.996492         175.059