! TOUCHSTONE file generated by CST MICROWAVE STUDIO
! Date and time: Mon Feb  5 14:07:18 2024
! Project name: metal_paredes.cst
! Header version: 2018
! Port assignment regex: !\s*Touchstone port\s*([0-9]+)\s*=\s*(CST MWS port|CST DS port)\s*([0-9]+|Zmin|Zmax)\s*\(\"(.*)\"\)(\s*mode\s*([0-9]+))?.*
! Touchstone port assignment:
! Touchstone port 1 = CST MWS port 1 ("")
! Touchstone port 2 = CST MWS port 2 ("")
# GHz S MA R 376.7
75                       0.99999       -0.117157                0               0                0               0         0.999628         179.358
75.035                  0.999999       -0.202267       4.0994e-65            -180       4.0994e-65            -180                1          179.02
75.07                          1       -0.286326                0               0                0               0                1         178.684
75.105                         1       -0.370384      3.99941e-65            -180      3.99941e-65            -180                1         178.348
75.14                          1       -0.454441      3.99941e-65            -180      3.99941e-65            -180                1         178.012
75.175                         1       -0.538498      3.99941e-65            -180      3.99941e-65            -180                1         177.676
75.21                          1       -0.622555      3.99941e-65            -180      3.99941e-65            -180                1          177.34
75.245                         1       -0.706612      3.99941e-65            -180      3.99941e-65            -180                1         177.004
75.28                          1       -0.790669      3.89943e-65            -180      3.89943e-65            -180                1         176.668
75.315                         1       -0.874726      3.89943e-65            -180      3.89943e-65            -180                1         176.332
75.35                          1       -0.958784      3.89943e-65            -180      3.89943e-65            -180                1         175.996
75.385                         1        -1.04284      3.89943e-65        -179.999      3.89943e-65        -179.999                1          175.66
75.42                          1         -1.1269      3.89943e-65        -179.999      3.89943e-65        -179.999                1         175.324
75.455                         1        -1.21096                0               0                0               0                1         174.988
75.49                          1        -1.29501      3.89943e-65        -179.999      3.89943e-65        -179.999                1         174.653
75.525                         1        -1.37907      3.89943e-65        -179.999      3.89943e-65        -179.999                1         174.317
75.56                          1        -1.46313      3.89943e-65        -179.999      3.89943e-65        -179.999                1         173.981
75.595                         1        -1.54719      3.89943e-65        -179.999      3.89943e-65        -179.999                1         173.645
75.63                          1        -1.63124      3.89943e-65        -179.999      3.89943e-65        -179.999                1         173.309
75.665                         1         -1.7153      3.89943e-65        -179.999      3.89943e-65        -179.999                1         172.973
75.7                           1        -1.79936      3.79944e-65        -179.999      3.79944e-65        -179.999                1         172.637
75.735                         1        -1.88342      3.79944e-65        -179.999      3.79944e-65        -179.999                1         172.301
75.77                          1        -1.96747      3.79944e-65        -179.999      3.79944e-65        -179.999                1         171.965
75.805                         1        -2.05153      3.79944e-65        -179.999      3.79944e-65        -179.999                1         171.629
75.84                          1        -2.13559      3.79944e-65        -179.999      3.79944e-65        -179.999                1         171.293
75.875                         1        -2.21965      3.79944e-65        -179.999      3.79944e-65        -179.999                1         170.957
75.91                          1        -2.30371      3.79945e-65        -179.999      3.79945e-65        -179.999                1         170.621
75.945                         1        -2.38777      3.79945e-65        -179.999      3.79945e-65        -179.999                1         170.285
75.98                          1        -2.47182      3.79945e-65        -179.999      3.79945e-65        -179.999                1         169.949
76.015                         1        -2.55588      3.79945e-65        -179.999      3.79945e-65        -179.999                1         169.613
76.05                          1        -2.63994      3.79945e-65        -179.999      3.79945e-65        -179.999                1         169.277
76.085                         1          -2.724      3.79945e-65        -179.999      3.79945e-65        -179.999                1         168.941
76.12                          1        -2.80806      3.69946e-65        -179.999      3.69946e-65        -179.999                1         168.605
76.155                         1        -2.89212      3.69946e-65        -179.999      3.69946e-65        -179.999                1          168.27
76.19                          1        -2.97618      3.69946e-65        -179.999      3.69946e-65        -179.999                1         167.934
76.225                         1        -3.06024      3.69946e-65        -179.999      3.69946e-65        -179.999                1         167.598
76.26                          1         -3.1443      3.69946e-65        -179.999      3.69946e-65        -179.999                1         167.262
76.295                         1        -3.22836      3.69946e-65        -179.998      3.69946e-65        -179.998                1         166.926
76.33                          1        -3.31242      3.69947e-65        -179.998      3.69947e-65        -179.998                1          166.59
76.365                         1        -3.39648      3.69947e-65        -179.998      3.69947e-65        -179.998                1         166.254
76.4                           1        -3.48054      3.69947e-65        -179.998      3.69947e-65        -179.998                1         165.918
76.435                         1        -3.56461      3.69947e-65        -179.998      3.69947e-65        -179.998                1         165.582
76.47                          1        -3.64867      3.69947e-65        -179.998      3.69947e-65        -179.998                1         165.246
76.505                         1        -3.73274      3.69947e-65        -179.998      3.69947e-65        -179.998         0.999999          164.91
76.54                          1         -3.8168      3.69947e-65        -179.998      3.69947e-65        -179.998         0.999998         164.574
76.575                         1        -3.90087      3.59948e-65        -179.998      3.59948e-65        -179.998         0.999997         164.238
76.61                          1        -3.98495      3.59948e-65        -179.998      3.59948e-65        -179.998         0.999994         163.902
76.645                         1        -4.06904      3.59949e-65        -179.998      3.59949e-65        -179.998         0.999988         163.566
76.68                          1        -4.15316      3.59949e-65        -179.998      3.59949e-65        -179.998         0.999976          163.23
76.715                   0.99998        -4.23621      3.59949e-65        -179.998      3.59949e-65        -179.998          0.99997         162.895
76.75                   0.999994        -4.32096      3.59949e-65        -179.998      3.59949e-65        -179.998         0.999982          162.56
76.785                  0.999996         -4.4051                0               0                0               0         0.999991         162.224
76.82                   0.999997        -4.48919      3.59949e-65        -179.998      3.59949e-65        -179.998         0.999996         161.888
76.855                  0.999998        -4.57327      3.59949e-65        -179.998      3.59949e-65        -179.998         0.999998         161.552
76.89                   0.999998        -4.65734      3.59949e-65        -179.998      3.59949e-65        -179.998         0.999999         161.216
76.925                  0.999999         -4.7414      3.59949e-65        -179.998      3.59949e-65        -179.998         0.999999          160.88
76.96                   0.999999        -4.82547      3.59949e-65        -179.998      3.59949e-65        -179.998                1         160.544
76.995                  0.999999        -4.90953      3.59949e-65        -179.998      3.59949e-65        -179.998                1         160.208
77.03                   0.999999         -4.9936      3.49951e-65        -179.998      3.49951e-65        -179.998                1         159.872
77.065                  0.999999        -5.07766      3.49951e-65        -179.998      3.49951e-65        -179.998                1         159.536
77.1                    0.999999        -5.16172      3.49951e-65        -179.998      3.49951e-65        -179.998                1           159.2
77.135                  0.999999        -5.24578      3.49951e-65        -179.998      3.49951e-65        -179.998                1         158.864
77.17                   0.999999        -5.32985      3.49951e-65        -179.998      3.49951e-65        -179.998                1         158.528
77.205                  0.999999        -5.41391      3.49951e-65        -179.998      3.49951e-65        -179.998                1         158.193
77.24                   0.999999        -5.49797      3.49951e-65        -179.997      3.49951e-65        -179.997                1         157.857
77.275                  0.999999        -5.58203      3.49951e-65        -179.997      3.49951e-65        -179.997                1         157.521
77.31                   0.999999        -5.66609      3.49951e-65        -179.997      3.49951e-65        -179.997         0.999999         157.185
77.345                  0.999999        -5.75015      3.49951e-65        -179.997      3.49951e-65        -179.997         0.999999         156.849
77.38                   0.999999        -5.83422      3.49952e-65        -179.997      3.49952e-65        -179.997         0.999999         156.513
77.415                  0.999999        -5.91828      3.49952e-65        -179.997      3.49952e-65        -179.997         0.999999         156.177
77.45                   0.999999        -6.00234      3.49952e-65        -179.997      3.49952e-65        -179.997         0.999999         155.841
77.485                  0.999999         -6.0864      3.39953e-65        -179.997      3.39953e-65        -179.997         0.999999         155.505
77.52                   0.999999        -6.17046      3.39953e-65        -179.997      3.39953e-65        -179.997         0.999999         155.169
77.555                  0.999999        -6.25452      3.39953e-65        -179.997      3.39953e-65        -179.997         0.999999         154.833
77.59                   0.999999        -6.33858      3.39954e-65        -179.997      3.39954e-65        -179.997         0.999999         154.498
77.625                  0.999999        -6.42264      3.39954e-65        -179.997      3.39954e-65        -179.997         0.999999         154.162
77.66                   0.999999         -6.5067      3.39954e-65        -179.997      3.39954e-65        -179.997         0.999999         153.826
77.695                  0.999999        -6.59076      3.39954e-65        -179.997      3.39954e-65        -179.997         0.999999          153.49
77.73                   0.999999        -6.67482      3.39954e-65        -179.997      3.39954e-65        -179.997         0.999999         153.154
77.765                  0.999999        -6.75888      3.39954e-65        -179.997      3.39954e-65        -179.997         0.999999         152.818
77.8                    0.999999        -6.84294      3.39954e-65        -179.997      3.39954e-65        -179.997         0.999999         152.482
77.835                  0.999999          -6.927      3.39954e-65        -179.997      3.39954e-65        -179.997         0.999999         152.146
77.87                   0.999999        -7.01106      3.39954e-65        -179.997      3.39954e-65        -179.997         0.999999          151.81
77.905                  0.999999        -7.09512      3.29956e-65        -179.997      3.29956e-65        -179.997                1         151.474
77.94                   0.999999        -7.17918      3.29956e-65        -179.997      3.29956e-65        -179.997                1         151.139
77.975                  0.999999        -7.26324      3.29956e-65        -179.997      3.29956e-65        -179.997                1         150.803
78.01                   0.999999         -7.3473      3.29956e-65        -179.997      3.29956e-65        -179.997                1         150.467
78.045                  0.999999        -7.43136      3.29956e-65        -179.997      3.29956e-65        -179.997                1         150.131
78.08                   0.999999        -7.51542      3.29956e-65        -179.997      3.29956e-65        -179.997                1         149.795
78.115                  0.999999        -7.59947      3.29956e-65        -179.997      3.29956e-65        -179.997                1         149.459
78.15                   0.999999        -7.68353      3.29956e-65        -179.997      3.29956e-65        -179.997                1         149.123
78.185                  0.999999        -7.76759      3.29957e-65        -179.997      3.29957e-65        -179.997                1         148.787
78.22                   0.999999        -7.85165      3.29957e-65        -179.996      3.29957e-65        -179.996                1         148.452
78.255                  0.999998        -7.93571      3.29957e-65        -179.996      3.29957e-65        -179.996                1         148.116
78.29                   0.999998        -8.01977      3.29957e-65        -179.996      3.29957e-65        -179.996                1          147.78
78.325                  0.999998        -8.10382      3.29957e-65        -179.996      3.29957e-65        -179.996                1         147.444
78.36                   0.999998        -8.18788      3.19958e-65        -179.996      3.19958e-65        -179.996                1         147.108
78.395                  0.999998        -8.27193      3.19959e-65        -179.996      3.19959e-65        -179.996                1         146.772
78.43                   0.999998        -8.35599      3.19959e-65        -179.996      3.19959e-65        -179.996                1         146.437
78.465                  0.999997        -8.44004      3.19959e-65        -179.996      3.19959e-65        -179.996                1         146.101
78.5                    0.999996        -8.52408      3.19959e-65        -179.996      3.19959e-65        -179.996                1         145.775
78.535                  0.999995        -8.60813      3.19959e-65        -179.996      3.19959e-65        -179.996         0.999819         145.432
78.57                   0.999988        -8.69233                0               0                0               0         0.999916         145.093
78.605                         1        -8.77695      3.19959e-65        -179.996      3.19959e-65        -179.996         0.999945         144.757
78.64                          1         -8.8606      3.19959e-65        -179.996      3.19959e-65        -179.996         0.999959         144.421
78.675                         1        -8.94457      3.19959e-65        -179.996      3.19959e-65        -179.996         0.999967         144.085
78.71                          1        -9.02859       3.1996e-65        -179.996       3.1996e-65        -179.996         0.999973         143.749
78.745                         1        -9.11263       3.1996e-65        -179.996       3.1996e-65        -179.996         0.999978         143.413
78.78                          1        -9.19668       3.1996e-65        -179.996       3.1996e-65        -179.996         0.999982         143.077
78.815                         1        -9.28073       3.1996e-65        -179.996       3.1996e-65        -179.996         0.999985         142.741
78.85                          1        -9.36479       3.1996e-65        -179.996       3.1996e-65        -179.996         0.999988         142.405
78.885                         1        -9.44884       3.1996e-65        -179.996       3.1996e-65        -179.996         0.999991         142.069
78.92                   0.999999         -9.5329      3.09962e-65        -179.996      3.09962e-65        -179.996         0.999994         141.733
78.955                  0.999999        -9.61696      3.09962e-65        -179.996      3.09962e-65        -179.996         0.999996         141.397
78.99                   0.999999        -9.70102      3.09962e-65        -179.996      3.09962e-65        -179.996         0.999998         141.061
79.025                  0.999999        -9.78508      3.09962e-65        -179.996      3.09962e-65        -179.996                1         140.725
79.06                   0.999999        -9.86914      3.09962e-65        -179.996      3.09962e-65        -179.996                1         140.389
79.095                  0.999999         -9.9532      3.09962e-65        -179.996      3.09962e-65        -179.996                1         140.053
79.13                   0.999999        -10.0373      3.09962e-65        -179.996      3.09962e-65        -179.996                1         139.717
79.165                  0.999999        -10.1213      3.09962e-65        -179.996      3.09962e-65        -179.996                1         139.381
79.2                    0.999999        -10.2054      3.09963e-65        -179.996      3.09963e-65        -179.996                1         139.045
79.235                  0.999999        -10.2894      3.09963e-65        -179.996      3.09963e-65        -179.996                1         138.709
79.27                   0.999999        -10.3735      3.09963e-65        -179.996      3.09963e-65        -179.996                1         138.373
79.305                  0.999999        -10.4576      3.09963e-65        -179.995      3.09963e-65        -179.995                1         138.037
79.34                   0.999999        -10.5416      3.09963e-65        -179.995      3.09963e-65        -179.995                1         137.701
79.375                  0.999999        -10.6257      3.09963e-65        -179.995      3.09963e-65        -179.995                1         137.365
79.41                   0.999999        -10.7098      2.99965e-65        -179.995      2.99965e-65        -179.995                1         137.029
79.445                  0.999999        -10.7938      2.99965e-65        -179.995      2.99965e-65        -179.995                1         136.694
79.48                   0.999999        -10.8779      2.99965e-65        -179.995      2.99965e-65        -179.995                1         136.358
79.515                  0.999999        -10.9619      2.99965e-65        -179.995      2.99965e-65        -179.995                1         136.022
79.55                   0.999999         -11.046      2.99965e-65        -179.995      2.99965e-65        -179.995                1         135.686
79.585                  0.999999        -11.1301      2.99965e-65        -179.995      2.99965e-65        -179.995                1          135.35
79.62                   0.999999        -11.2141      2.99965e-65        -179.995      2.99965e-65        -179.995                1         135.014
79.655                  0.999999        -11.2982      2.99966e-65        -179.995      2.99966e-65        -179.995                1         134.678
79.69                   0.999999        -11.3823      2.99966e-65        -179.995      2.99966e-65        -179.995                1         134.342
79.725                  0.999999        -11.4663      2.89967e-65        -179.995      2.89967e-65        -179.995                1         134.006
79.76                   0.999999        -11.5504      2.89967e-65        -179.995      2.89967e-65        -179.995                1          133.67
79.795                  0.999999        -11.6344      2.89967e-65        -179.995      2.89967e-65        -179.995                1         133.334
79.83                   0.999999        -11.7185      2.89967e-65        -179.995      2.89967e-65        -179.995                1         132.998
79.865                  0.999999        -11.8026                0               0                0               0                1         132.662
79.9                    0.999999        -11.8866      2.89968e-65        -179.995      2.89968e-65        -179.995                1         132.327
79.935                  0.999999        -11.9707      2.89968e-65        -179.995      2.89968e-65        -179.995                1         131.991
79.97                   0.999999        -12.0547      2.89968e-65        -179.995      2.89968e-65        -179.995                1         131.655
80.005                  0.999999        -12.1388      2.89968e-65        -179.995      2.89968e-65        -179.995                1         131.319
80.04                   0.999999        -12.2229      2.89968e-65        -179.995      2.89968e-65        -179.995                1         130.983
80.075                  0.999999        -12.3069      2.89968e-65        -179.995      2.89968e-65        -179.995                1         130.647
80.11                   0.999999         -12.391      2.89968e-65        -179.995      2.89968e-65        -179.995                1         130.311
80.145                  0.999999        -12.4751      2.89969e-65        -179.995      2.89969e-65        -179.995                1         129.975
80.18                   0.999999        -12.5591      2.89969e-65        -179.995      2.89969e-65        -179.995         0.999999         129.639
80.215                  0.999999        -12.6432       2.7997e-65        -179.995       2.7997e-65        -179.995         0.999999         129.303
80.25                   0.999999        -12.7273       2.7997e-65        -179.995       2.7997e-65        -179.995         0.999999         128.967
80.285                  0.999999        -12.8113       2.7997e-65        -179.995       2.7997e-65        -179.995         0.999999         128.631
80.32                          1        -12.8954       2.7997e-65        -179.995       2.7997e-65        -179.995         0.999998         128.296
80.355                         1        -12.9795      2.79971e-65        -179.995      2.79971e-65        -179.995         0.999998          127.96
80.39                          1        -13.0635      2.79971e-65        -179.995      2.79971e-65        -179.995         0.999998         127.624
80.425                         1        -13.1476      2.79971e-65        -179.995      2.79971e-65        -179.995         0.999998         127.288
80.46                          1        -13.2317      2.79971e-65        -179.995      2.79971e-65        -179.995         0.999998         126.952
80.495                         1        -13.3157      2.79971e-65        -179.995      2.79971e-65        -179.995         0.999998         126.616
80.53                          1        -13.3998      2.79971e-65        -179.995      2.79971e-65        -179.995         0.999999          126.28
80.565                         1        -13.4839      2.79971e-65        -179.994      2.79971e-65        -179.994         0.999999         125.944
80.6                           1         -13.568      2.79972e-65        -179.994      2.79972e-65        -179.994                1         125.608
80.635                         1        -13.6521      2.79972e-65        -179.994      2.79972e-65        -179.994                1         125.272
80.67                          1        -13.7361      2.79972e-65        -179.994      2.79972e-65        -179.994                1         124.936
80.705                         1        -13.8202      2.69973e-65        -179.994      2.69973e-65        -179.994                1           124.6
80.74                   0.999999        -13.9043      2.69973e-65        -179.994      2.69973e-65        -179.994                1         124.264
80.775                  0.999999        -13.9884      2.69973e-65        -179.994      2.69973e-65        -179.994                1         123.929
80.81                   0.999998        -14.0725      2.69973e-65        -179.994      2.69973e-65        -179.994                1         123.593
80.845                  0.999997        -14.1566      2.69974e-65        -179.994      2.69974e-65        -179.994                1         123.257
80.88                   0.999996        -14.2406      2.69974e-65        -179.994      2.69974e-65        -179.994                1         122.921
80.915                  0.999996        -14.3247      2.69974e-65        -179.994      2.69974e-65        -179.994                1         122.585
80.95                   0.999995        -14.4087      2.69974e-65        -179.994      2.69974e-65        -179.994                1         122.249
80.985                  0.999995        -14.4927      2.69974e-65        -179.994      2.69974e-65        -179.994                1         121.913
81.02                   0.999995        -14.5768      2.59975e-65        -179.994      2.59975e-65        -179.994                1         121.577
81.055                  0.999995        -14.6609      2.59975e-65        -179.994      2.59975e-65        -179.994                1         121.242
81.09                   0.999995        -14.7449      2.59976e-65        -179.994      2.59976e-65        -179.994                1         120.906
81.125                  0.999995         -14.829      2.59976e-65        -179.994      2.59976e-65        -179.994         0.999999          120.57
81.16                   0.999995        -14.9131                0               0                0               0         0.999999         120.234
81.195                  0.999995        -14.9972      2.59976e-65        -179.994      2.59976e-65        -179.994         0.999998         119.898
81.23                   0.999994        -15.0813      2.59976e-65        -179.994      2.59976e-65        -179.994         0.999998         119.562
81.265                  0.999995        -15.1654      2.59976e-65        -179.994      2.59976e-65        -179.994         0.999997         119.226
81.3                    0.999996        -15.2496      2.59976e-65        -179.994      2.59976e-65        -179.994         0.999996          118.89
81.335                         1        -15.3336      2.49977e-65        -179.994      2.49977e-65        -179.994         0.999995         118.554
81.37                          1        -15.4175      2.49978e-65        -179.994      2.49978e-65        -179.994         0.999994         118.218
81.405                         1        -15.5015      2.49978e-65        -179.994      2.49978e-65        -179.994         0.999992         117.883
81.44                   0.999999        -15.5855      2.49978e-65        -179.994      2.49978e-65        -179.994                1         117.548
81.475                  0.999999        -15.6696      2.49978e-65        -179.994      2.49978e-65        -179.994                1          117.21
81.51                   0.999999        -15.7537      2.49978e-65        -179.994      2.49978e-65        -179.994                1         116.874
81.545                  0.999998        -15.8377      2.49978e-65        -179.994      2.49978e-65        -179.994                1         116.538
81.58                   0.999998        -15.9218      2.49978e-65        -179.994      2.49978e-65        -179.994                1         116.202
81.615                  0.999998        -16.0059      2.49979e-65        -179.994      2.49979e-65        -179.994                1         115.866
81.65                   0.999998          -16.09       2.3998e-65        -179.994       2.3998e-65        -179.994         0.999999          115.53
81.685                  0.999998         -16.174       2.3998e-65        -179.994       2.3998e-65        -179.994         0.999999         115.194
81.72                   0.999998        -16.2581       2.3998e-65        -179.994       2.3998e-65        -179.994         0.999999         114.858
81.755                  0.999998        -16.3422       2.3998e-65        -179.994       2.3998e-65        -179.994         0.999999         114.523
81.79                   0.999999        -16.4262       2.3998e-65        -179.994       2.3998e-65        -179.994         0.999999         114.187
81.825                  0.999999        -16.5103       2.3998e-65        -179.994       2.3998e-65        -179.994         0.999999         113.851
81.86                   0.999999        -16.5944       2.3998e-65        -179.994       2.3998e-65        -179.994         0.999999         113.515
81.895                  0.999999        -16.6785      2.39981e-65        -179.994      2.39981e-65        -179.994         0.999999         113.179