! TOUCHSTONE file generated by CST MICROWAVE STUDIO
! Date and time: Mon Feb 26 23:24:28 2024
! Project name: aire_des.cst
! Header version: 2018
! Port assignment regex: !\s*Touchstone port\s*([0-9]+)\s*=\s*(CST MWS port|CST DS port)\s*([0-9]+|Zmin|Zmax)\s*\(\"(.*)\"\)(\s*mode\s*([0-9]+))?.*
! Touchstone port assignment:
! Touchstone port 1 = CST MWS port 1 ("")
! Touchstone port 2 = CST MWS port 2 ("")
# GHz S MA R 376.7
60                      0.166506        -61.0454         0.985848        -151.284         0.985893        -151.293          0.16651        -61.4954
60.01                   0.167599        -61.3473         0.985738         -151.54         0.985512        -151.552          0.16755         -61.854
60.02                   0.169029        -61.6319         0.985557        -151.795         0.985148        -151.808         0.168936        -62.1656
60.03                   0.170769        -61.9057          0.98531         -152.05         0.984785        -152.065         0.170643        -62.4475
60.04                     0.1728         -62.174            0.985        -152.307         0.984406        -152.323         0.172653        -62.7117
60.05                   0.175114        -62.4408         0.984628        -152.569         0.984003        -152.586         0.174955        -62.9669
60.06                   0.177706        -62.7093         0.984196        -152.837         0.983564        -152.854         0.177544        -63.2194
60.07                   0.180578        -62.9823           0.9837        -153.112         0.983082        -153.129          0.18042         -63.474
60.08                   0.183737        -63.2623         0.983139        -153.396         0.982548        -153.413         0.183589        -63.7347
60.09                   0.187195        -63.5517         0.982507        -153.691         0.981954        -153.708          0.18706        -64.0047
60.1                    0.190966        -63.8526         0.981799        -153.999         0.981292        -154.015         0.190849        -64.2869
60.11                    0.19507        -64.1673         0.981008        -154.321         0.980552        -154.337         0.194974        -64.5838
60.12                   0.199533        -64.4983         0.980124        -154.659         0.979723        -154.675         0.199459        -64.8983
60.13                   0.204384        -64.8479         0.979136        -155.017         0.978794        -155.032         0.204335        -65.2328
60.14                   0.209658        -65.2189         0.978032        -155.396         0.977749        -155.411         0.209637        -65.5904
60.15                   0.215399        -65.6145         0.976794        -155.799         0.976572        -155.815         0.215406        -65.9739
60.16                   0.221655        -66.0381         0.975402         -156.23         0.975241        -156.246         0.221693        -66.3871
60.17                   0.228487        -66.4936         0.973832        -156.693         0.973733        -156.709         0.228557        -66.8338
60.18                   0.235964        -66.9857         0.972055        -157.193         0.972016        -157.209         0.236068        -67.3186
60.19                   0.244171        -67.5198         0.970032        -157.734         0.970053        -157.751          0.24431         -67.847
60.2                    0.253205        -68.1024         0.967719        -158.323         0.967799        -158.341         0.253383        -68.4253
60.21                   0.263188        -68.7412         0.965057        -158.967         0.965194        -158.987         0.263406        -69.0614
60.22                   0.274263        -69.4453         0.961972        -159.677         0.962165        -159.698         0.274525        -69.7644
60.23                   0.286606        -70.2263         0.958371        -160.463         0.958616        -160.487         0.286914        -70.5457
60.24                    0.30043        -71.0982          0.95413         -161.34         0.954425        -161.366          0.30079        -71.4195
60.25                      0.316        -72.0784         0.949088        -162.324         0.949428        -162.353         0.316416        -72.4034
60.26                   0.333645        -73.1891          0.94303        -163.439         0.943408        -163.471         0.334123        -73.5195
60.27                   0.353778        -74.4586         0.935662        -164.711          0.93607        -164.747         0.354324        -74.7964
60.28                   0.376918        -75.9237         0.926578        -166.178         0.927005         -166.22          0.37754        -76.2709
60.29                   0.403729        -77.6326         0.915208        -167.889         0.915635        -167.936         0.404434        -77.9919
60.3                    0.435053        -79.6501         0.900729        -169.906         0.901129        -169.962         0.435849        -80.0242
60.31                   0.471967        -82.0639          0.88193        -172.319         0.882265        -172.383         0.472858        -82.4563
60.32                   0.515819        -84.9948         0.856996        -175.248         0.857206        -175.321         0.516802        -85.4096
60.33                    0.56823        -88.6112          0.82314        -178.859         0.823139        -178.944         0.569284        -89.0532
60.34                   0.630957        -93.1485         0.776039         176.612         0.775705         176.518         0.632021        -93.6229
60.35                   0.705329        -98.9304          0.70901         170.842         0.708183         170.748         0.706259        -99.4418
60.36                   0.790695        -106.377         0.612151         163.414         0.610689         163.347         0.791191        -106.926
60.37                   0.880948         -115.95         0.472709         153.873         0.470682         153.912         0.880491        -116.524
60.38                    0.95939        -127.923          0.28022         141.971         0.278344         142.395         0.957396        -128.482
60.39                    0.99839        -141.921        0.0402225         128.838        0.0402734          134.02         0.995013        -142.393
60.4                    0.975993        -156.598         0.213884        -67.0331         0.211399        -67.8356         0.973202        -156.932
60.41                   0.898826        -170.196         0.437133        -80.5277         0.434569        -80.5222          0.89879        -170.515
60.42                   0.795441         178.361         0.605883        -91.8737         0.605931        -91.8633         0.795387         177.908
60.43                   0.689843         169.305         0.723514        -100.811         0.723313        -101.003         0.689425         168.854
60.44                   0.596935         162.383         0.800798         -107.97         0.801163         -108.03         0.596202         161.913
60.45                   0.519098          156.98         0.853913        -113.364         0.853477        -113.455         0.518215          156.53
60.46                   0.454609         152.712         0.890231        -117.637          0.88943        -117.715         0.453805         152.285
60.47                   0.401257         149.293         0.915706        -121.059         0.914753        -121.121         0.400595         148.881
60.48                   0.356875         146.509          0.93402        -123.844         0.933029        -123.892         0.356353         146.105
60.49                   0.319639         144.208         0.947492        -126.147         0.946524        -126.184         0.319236         143.806
60.5                    0.288097         142.277         0.957613        -128.079         0.956698        -128.106         0.287791         141.874
60.51                   0.261121         140.637         0.965361         -129.72         0.964513         -129.74         0.260893          140.23
60.52                   0.237837         139.227          0.97139         -131.13         0.970615        -131.145          0.23767         138.814
60.53                   0.217567         138.002         0.976153        -132.355         0.975451        -132.366         0.217449         137.582
60.54                    0.19978         136.928         0.979964        -133.429         0.979335        -133.436         0.199702         136.499
60.55                    0.18406         135.979         0.983049        -134.378          0.98249        -134.383         0.184013          135.54
60.56                   0.170074         135.134         0.985573        -135.223         0.985081        -135.226         0.170052         134.684
60.57                   0.157554         134.376         0.987656        -135.981         0.987228        -135.982         0.157553         133.915
60.58                   0.146285         133.693          0.98939        -136.665         0.989022        -136.665           0.1463          133.22
60.59                   0.136089         133.072         0.990844        -137.285         0.990533        -137.284         0.136119         132.587
60.6                    0.126822         132.507         0.992071        -137.851         0.991814        -137.849         0.126862         132.008
60.61                   0.118361         131.988         0.993113        -138.369         0.992907        -138.366         0.118411         131.476
60.62                   0.110606         131.511         0.994002        -138.846         0.993845        -138.843         0.110664         130.985
60.63                   0.103472         131.071         0.994764        -139.287         0.994654        -139.283         0.103537          130.53
60.64                  0.0968865         130.662         0.995421        -139.695         0.995355        -139.691        0.0969567         130.106
60.65                  0.0907872         130.282         0.995989        -140.075         0.995965        -140.071        0.0908621          129.71
60.66                  0.0851217         129.927         0.996481         -140.43         0.996497        -140.426        0.0852005         129.339
60.67                  0.0798443         129.595          0.99691        -140.763         0.996964        -140.758        0.0799265          128.99
60.68                  0.0749154         129.283         0.997284        -141.075         0.997375         -141.07        0.0750005          128.66
60.69                  0.0703006         128.989         0.997611        -141.369         0.997737        -141.364        0.0703882         128.349
60.7                   0.0659699         128.712         0.997897        -141.646         0.998057        -141.641        0.0660596         128.052
60.71                  0.0618968          128.45         0.998149        -141.908         0.998341        -141.903        0.0619883          127.77
60.72                   0.058058         128.202         0.998371        -142.157         0.998593        -142.152        0.0581511         127.501
60.73                  0.0544323         127.966         0.998566        -142.393         0.998786        -142.388        0.0545269         127.243
60.74                  0.0510011         127.744         0.998738        -142.619         0.998897        -142.613        0.0510969         126.998
60.75                  0.0477492         127.531          0.99889        -142.833         0.999001        -142.828         0.047846         126.761
60.76                  0.0446619         127.329         0.999024        -143.038         0.999099        -143.033        0.0447596         126.532
60.77                  0.0417261         127.135         0.999142        -143.235         0.999191        -143.229        0.0418247         126.311
60.78                  0.0389301         126.949         0.999247        -143.423         0.999278        -143.417        0.0390294         126.095
60.79                  0.0362631         126.771         0.999339        -143.604          0.99936        -143.598        0.0363631         125.885
60.8                   0.0337157           126.6          0.99942        -143.778         0.999438        -143.771        0.0338163         125.679
60.81                  0.0312791         126.435         0.999492        -143.945         0.999512        -143.939        0.0313802         125.477
60.82                  0.0289453         126.277         0.999555        -144.106         0.999583          -144.1         0.029047         125.277
60.83                  0.0267073         126.124         0.999611        -144.262          0.99965        -144.256        0.0268094         125.079
60.84                  0.0245584         125.977          0.99966        -144.413         0.999713        -144.406        0.0246609         124.881
60.85                  0.0224926         125.835         0.999702        -144.559         0.999774        -144.552        0.0225956         124.683
60.86                  0.0205045         125.697         0.999739          -144.7         0.999833        -144.693        0.0206078         124.481
60.87                  0.0185889         125.565         0.999772        -144.837         0.999888         -144.83        0.0186926         124.274
60.88                  0.0167413         125.437         0.999799         -144.97         0.999942        -144.963        0.0168453          124.06
60.89                  0.0149573         125.314         0.999823          -145.1         0.999993        -145.093        0.0150617         123.835
60.9                    0.013233         125.195         0.999843        -145.226          1.00004        -145.219        0.0133378         123.593
60.91                  0.0115648         125.082          0.99986        -145.349          1.00009        -145.341        0.0116699         123.327
60.92                  0.0099492         124.974         0.999873        -145.468          1.00014        -145.461        0.0100548         123.024
60.93                 0.00838316         124.872         0.999884        -145.585          1.00018        -145.578       0.00848928         122.665
60.94                 0.00686372          124.78         0.999893        -145.699          1.00022        -145.692       0.00697052         122.215
60.95                 0.00538818           124.7         0.999899         -145.81          1.00026        -145.803       0.00549596         121.601
60.96                   0.003954         124.645         0.999903        -145.919           1.0003        -145.912       0.00406338         120.659
60.97                 0.00255882         124.649         0.999906        -146.026          1.00034        -146.019        0.0026714         118.888
60.98                 0.00120046         124.897         0.999906        -146.131          1.00038        -146.123       0.00132271         113.812
60.99                0.000124098        -62.3134         0.999905        -146.233          1.00041        -146.226       0.00022608         28.3276
61                    0.00141429        -56.5348         0.999903        -146.334          1.00045        -146.326       0.00133065        -46.8584
61.01                 0.00267422        -56.3678         0.999899        -146.432          1.00048        -146.425       0.00258144        -51.7004
61.02                 0.00390492        -56.3708         0.999894        -146.529          1.00051        -146.522        0.0038092        -53.4177
61.03                 0.00510838        -56.4247         0.999887        -146.625          1.00052        -146.618        0.0050113        -54.3385
61.04                 0.00628587        -56.4955          0.99988        -146.719          1.00051        -146.712       0.00618812        -54.9336
61.05                  0.0074387        -56.5727         0.999871        -146.811           1.0005        -146.804       0.00734064         -55.363
61.06                 0.00856822         -56.653         0.999862        -146.902          1.00049        -146.895       0.00847008        -55.6969
61.07                 0.00967572         -56.735         0.999852        -146.992          1.00048        -146.985       0.00957767        -55.9706
61.08                  0.0107624        -56.8176          0.99984         -147.08          1.00047        -147.074        0.0106646        -56.2038
61.09                  0.0118295        -56.9005         0.999828        -147.167          1.00046        -147.161         0.011732        -56.4082
61.1                    0.012878        -56.9832         0.999816        -147.253          1.00044        -147.247        0.0127809        -56.5915
61.11                   0.013909        -57.0656         0.999802        -147.338          1.00043        -147.333        0.0138124        -56.7587
61.12                  0.0149236        -57.1477         0.999788        -147.423          1.00041        -147.417        0.0148276        -56.9133
61.13                  0.0159226        -57.2293         0.999773        -147.506          1.00039        -147.501        0.0158273        -57.0579
61.14                   0.016907        -57.3104         0.999758        -147.588          1.00037        -147.583        0.0168124        -57.1943
61.15                  0.0178777         -57.391         0.999742         -147.67          1.00035        -147.665         0.017784         -57.324
61.16                  0.0188354        -57.4711         0.999725         -147.75          1.00033        -147.746        0.0187427         -57.448
61.17                  0.0197811        -57.5507         0.999708         -147.83           1.0003        -147.826        0.0196894        -57.5672
61.18                  0.0207155        -57.6297          0.99969        -147.909          1.00028        -147.906         0.020625        -57.6823
61.19                  0.0216394        -57.7084         0.999671        -147.988          1.00025        -147.985        0.0215501        -57.7938
61.2                   0.0225534        -57.7865         0.999652        -148.066          1.00023        -148.063        0.0224655        -57.9023
61.21                  0.0234584        -57.8643         0.999633        -148.144           1.0002        -148.141        0.0233719         -58.008
61.22                  0.0243549        -57.9417         0.999613        -148.221          1.00017        -148.219        0.0242701        -58.1114
61.23                  0.0252437        -58.0187         0.999592        -148.297          1.00014        -148.295        0.0251606        -58.2126
61.24                  0.0261254        -58.0953         0.999571        -148.373           1.0001        -148.372        0.0260443         -58.312
61.25                  0.0270007        -58.1717         0.999549        -148.449          1.00007        -148.448        0.0269216        -58.4097
61.26                  0.0278701        -58.2478         0.999527        -148.524          1.00003        -148.524        0.0277933        -58.5058
61.27                  0.0287344        -58.3236         0.999504        -148.599         0.999997        -148.599        0.0286599        -58.6006
61.28                   0.029594        -58.3993         0.999481        -148.673         0.999957        -148.674        0.0295222        -58.6942
61.29                  0.0304496        -58.4748         0.999457        -148.748         0.999915        -148.749        0.0303807        -58.7868
61.3                   0.0313018        -58.5502         0.999432        -148.822         0.999872        -148.824         0.031236        -58.8783
61.31                  0.0321512        -58.6254         0.999407        -148.896         0.999826        -148.898        0.0320888        -58.9689
61.32                  0.0329984        -58.7006         0.999381        -148.969         0.999777        -148.972        0.0329396        -59.0587
61.33                  0.0338439        -58.7757         0.999355        -149.043         0.999726        -149.046        0.0337892        -59.1477
61.34                  0.0346883        -58.8508         0.999328        -149.117         0.999673         -149.12         0.034638         -59.236
61.35                  0.0355323         -58.926         0.999301         -149.19         0.999617        -149.193        0.0354867        -59.3235
61.36                  0.0363764        -59.0011         0.999272        -149.263         0.999559        -149.266         0.036336        -59.4104
61.37                  0.0372212        -59.0763         0.999243        -149.337         0.999499        -149.339        0.0371866        -59.4966
61.38                  0.0380674        -59.1516         0.999214         -149.41         0.999437        -149.412         0.038039         -59.582
61.39                  0.0389156        -59.2268         0.999183        -149.484         0.999375        -149.485        0.0388939        -59.6665
61.4                   0.0397665         -59.302         0.999152        -149.557         0.999312        -149.558        0.0397521          -59.75
61.41                  0.0406208        -59.3772         0.999121        -149.631         0.999251         -149.63        0.0406143        -59.8322
61.42                  0.0414794        -59.4521         0.999088        -149.705         0.999192        -149.703        0.0414813         -59.913
61.43                  0.0423429        -59.5267         0.999055        -149.779         0.999137        -149.775        0.0423537        -59.9918
61.44                  0.0432125        -59.6007          0.99902        -149.853         0.999085        -149.848        0.0432326        -60.0682
61.45                  0.0440892        -59.6739         0.998985        -149.927         0.999038         -149.92        0.0441185        -60.1416
61.46                  0.0449741        -59.7458         0.998949        -150.002         0.998996        -149.993        0.0450123        -60.2113
61.47                  0.0458688        -59.8157         0.998913        -150.077         0.998959        -150.066        0.0459144        -60.2762
61.48                  0.0467748        -59.8823         0.998875        -150.153         0.998926         -150.14        0.0468254        -60.3353
61.49                  0.0476939        -59.9438         0.998837        -150.229         0.998896        -150.215         0.047745        -60.3874
61.5                    0.048628        -59.9967         0.998798        -150.305         0.998868         -150.29        0.0486728        -60.4313
61.51                  0.0495784        -60.0353         0.998758        -150.382         0.998842        -150.366        0.0496071        -60.4662
61.52                  0.0505437        -60.0504         0.998718         -150.46         0.998816        -150.442        0.0505457        -60.4919
61.53                  0.0515146        -60.0288         0.998677        -150.538          0.99879         -150.52        0.0514856        -60.5099
61.54                  0.0524641        -59.9621         0.998635        -150.616         0.998763        -150.598        0.0524236        -60.5235
61.55                   0.053347        -59.8752         0.998591        -150.696         0.998733        -150.677        0.0533575         -60.538
61.56                  0.0541493        -59.8485         0.998543        -150.775         0.998698        -150.756        0.0542877        -60.5599
61.57                  0.0549431        -59.9395          0.99849        -150.856         0.998657        -150.837        0.0552172        -60.5952
61.58                  0.0558062        -60.1083         0.998433        -150.937         0.998612        -150.919         0.056152        -60.6479
61.59                  0.0567483        -60.2913         0.998375         -151.02         0.998563        -151.002        0.0570989        -60.7187
61.6                   0.0577482        -60.4603         0.998315        -151.104         0.998511        -151.086        0.0580645        -60.8059
61.61                  0.0587875        -60.6109         0.998254        -151.189         0.998457        -151.171        0.0590538        -60.9062
61.62                  0.0598566        -60.7465          0.99819        -151.274         0.998399        -151.257        0.0600702        -61.0159
61.63                  0.0609513        -60.8713         0.998124        -151.362         0.998339        -151.345        0.0611157        -61.1318
61.64                  0.0620705        -60.9887         0.998056         -151.45         0.998274        -151.433        0.0621914        -61.2514
61.65                  0.0632145        -61.1011         0.997985         -151.54         0.998206        -151.524        0.0632983         -61.373
61.66                  0.0643846        -61.2104         0.997912        -151.631         0.998135        -151.616         0.064437        -61.4955
61.67                  0.0655821        -61.3178         0.997835        -151.724         0.998059        -151.709        0.0656085        -61.6185
61.68                  0.0668092        -61.4243         0.997755        -151.819          0.99798        -151.804        0.0668138        -61.7415
61.69                  0.0680678        -61.5306         0.997671        -151.916         0.997896        -151.901        0.0680543        -61.8647
61.7                   0.0693602        -61.6373         0.997584        -152.014         0.997807            -152        0.0693318        -61.9881
61.71                  0.0706891        -61.7448         0.997492        -152.115         0.997714        -152.101        0.0706481         -62.112
61.72                   0.072057        -61.8534         0.997395        -152.218         0.997616        -152.205        0.0720056        -62.2365
61.73                   0.073467        -61.9637         0.997294        -152.323         0.997512        -152.311        0.0734069         -62.362
61.74                  0.0749222        -62.0759         0.997187        -152.431         0.997402        -152.419        0.0748549        -62.4888
61.75                  0.0764262        -62.1902         0.997075        -152.542         0.997286         -152.53        0.0763528        -62.6172
61.76                  0.0779828        -62.3071         0.996956        -152.656         0.997163        -152.645        0.0779043        -62.7476
61.77                  0.0795962        -62.4268          0.99683        -152.773         0.997033        -152.762        0.0795134        -62.8802
61.78                   0.081271        -62.5497         0.996696        -152.894         0.996895        -152.883        0.0811847        -63.0155
61.79                  0.0830124         -62.676         0.996554        -153.018         0.996748        -153.008         0.082923        -63.1539
61.8                   0.0848258        -62.8062         0.996403        -153.147         0.996592        -153.137         0.084734        -63.2957
61.81                  0.0867177        -62.9407         0.996242         -153.28         0.996425        -153.271        0.0866238        -63.4414
61.82                   0.088695        -63.0797         0.996069        -153.418         0.996246         -153.41        0.0885994        -63.5914
61.83                  0.0907655         -63.224         0.995884        -153.561         0.996055        -153.553        0.0906684        -63.7463
61.84                  0.0929379        -63.3738         0.995685        -153.711          0.99585        -153.703        0.0928397        -63.9067
61.85                   0.095222          -63.53         0.995471        -153.867         0.995628         -153.86         0.095123         -64.073
61.86                  0.0976291         -63.693         0.995239         -154.03         0.995389        -154.023        0.0975293        -64.2461
61.87                   0.100172        -63.8636         0.994988          -154.2         0.995131        -154.194         0.100071        -64.4267
61.88                   0.102864        -64.0427         0.994715         -154.38         0.994849        -154.374         0.102764        -64.6157
61.89                   0.105723        -64.2313         0.994417        -154.569         0.994542        -154.563         0.105623        -64.8141
61.9                    0.108768        -64.4304          0.99409        -154.769         0.994207        -154.764         0.108667         -65.023
61.91                    0.11202        -64.6414          0.99373        -154.981         0.993838        -154.976         0.111919        -65.2437
61.92                   0.115506        -64.8657         0.993333        -155.206          0.99343        -155.201         0.115405        -65.4777
61.93                   0.119255         -65.105         0.992891        -155.447         0.992978        -155.442         0.119153        -65.7269
61.94                   0.123302        -65.3615         0.992398        -155.705         0.992475        -155.701         0.123201        -65.9933
61.95                   0.127691        -65.6377         0.991845        -155.982         0.991909        -155.979          0.12759        -66.2795
61.96                   0.132471        -65.9364         0.991219        -156.283         0.991272         -156.28          0.13237        -66.5883
61.97                   0.137703        -66.2612         0.990508         -156.61         0.990547        -156.607         0.137602        -66.9235