! TOUCHSTONE file generated by CST MICROWAVE STUDIO
! Date and time: Wed Feb 21 23:55:44 2024
! Project name: aire_des.cst
! Header version: 2018
! Port assignment regex: !\s*Touchstone port\s*([0-9]+)\s*=\s*(CST MWS port|CST DS port)\s*([0-9]+|Zmin|Zmax)\s*\(\"(.*)\"\)(\s*mode\s*([0-9]+))?.*
! Touchstone port assignment:
! Touchstone port 1 = CST MWS port 1 ("")
! Touchstone port 2 = CST MWS port 2 ("")
# GHz S MA R 376.7
60                      0.200623        -95.8949         0.843285         176.376         0.843776          176.38         0.200423        -95.8195
60.01                   0.200245        -95.2601         0.846161         176.277         0.846653         176.282          0.20014        -95.1813
60.02                   0.200104        -94.5625         0.849192         176.165         0.849685         176.172         0.200083        -94.4852
60.03                   0.200245        -93.8064         0.852373          176.04         0.852867         176.048         0.200292        -93.7345
60.04                   0.200717        -92.9988           0.8557         175.899         0.856192         175.907         0.200814        -92.9354
60.05                   0.201569        -92.1501         0.859163          175.74         0.859649         175.749         0.201695        -92.0967
60.06                   0.202849        -91.2738         0.862747         175.562         0.863219          175.57         0.202981        -91.2303
60.07                   0.204602        -90.3871         0.866431         175.363          0.86688         175.369         0.204719        -90.3514
60.08                   0.206865          -89.51         0.870189         175.139         0.870604         175.144         0.206946        -89.4782
60.09                   0.209665        -88.6651         0.873985          174.89         0.874352         174.893         0.209696        -88.6317
60.1                    0.213017        -87.8759         0.877776         174.614         0.878082         174.615         0.212988        -87.8342
60.11                   0.216919        -87.1664         0.881513         174.309         0.881742         174.309          0.21683        -87.1091
60.12                   0.221351        -86.5586         0.885136         173.974         0.885273         173.973         0.221209        -86.4788
60.13                   0.226275        -86.0719         0.888579         173.609         0.888613         173.608         0.226097        -85.9637
60.14                   0.231634        -85.7215         0.891773         173.214         0.891691         173.215         0.231447        -85.5808
60.15                   0.237355        -85.5175         0.894642         172.791         0.894439         172.794         0.237191        -85.3425
60.16                   0.243355        -85.4647         0.897111         172.341         0.896787         172.348          0.24325        -85.2564
60.17                   0.249539        -85.5628         0.899111         171.867         0.898671          171.88          0.24953        -85.3242
60.18                   0.255812        -85.8064         0.900578         171.374         0.900033         171.394         0.255933        -85.5429
60.19                   0.262078        -86.1862         0.901459         170.866         0.900828         170.894         0.262359        -85.9046
60.2                     0.26825        -86.6896         0.901716         170.347         0.901025         170.385         0.268711        -86.3979
60.21                   0.274247        -87.3022          0.90133         169.825         0.900608         169.872         0.274899        -87.0084
60.22                   0.280004        -88.0082           0.9003         169.304         0.899577         169.362         0.280848        -87.7202
60.23                   0.285468        -88.7918         0.898641          168.79         0.897951         168.858         0.286495        -88.5166
60.24                   0.290598        -89.6376          0.89639         168.288         0.895762         168.366         0.291793        -89.3811
60.25                   0.295371        -90.5309         0.893596         167.804         0.893056          167.89         0.296708        -90.2978
60.26                   0.299773        -91.4588         0.890319         167.341          0.88989         167.434         0.301225        -91.2522
60.27                   0.303801        -92.4096         0.886629         166.903         0.886324             167         0.305338        -92.2313
60.28                   0.307463        -93.3733         0.882597         166.491         0.882426         166.592         0.309052         -93.224
60.29                   0.310771        -94.3416         0.878297         166.107         0.878262         166.209         0.312383        -94.2208
60.3                    0.313743        -95.3074         0.873798         165.752         0.873895         165.853         0.315348        -95.2138
60.31                   0.316402        -96.2653         0.869166         165.425         0.869385         165.524         0.317974        -96.1968
60.32                    0.31877         -97.211         0.864457         165.126         0.864785         165.221         0.320287        -97.1651
60.33                   0.320871        -98.1411         0.859723         164.853         0.860145         164.943         0.322314        -98.1149
60.34                   0.322731        -99.0533         0.855006         164.605         0.855504         164.689         0.324085        -99.0438
60.35                   0.324372         -99.946         0.850342         164.381         0.850896         164.458         0.325625        -99.9499
60.36                   0.325817        -100.818         0.845758         164.177          0.84635         164.248         0.326961        -100.832
60.37                   0.327087        -101.669         0.841276         163.994         0.841887         164.056         0.328117         -101.69
60.38                   0.328203        -102.498         0.836912         163.827         0.837524         163.882         0.329115        -102.524
60.39                    0.32918        -103.307         0.832676         163.677         0.833273         163.724         0.329976        -103.334
60.4                    0.330037        -104.094         0.828574          163.54         0.829142          163.58         0.330717        -104.121
60.41                   0.330788        -104.862         0.824611         163.415         0.825135         163.449         0.331355        -104.885
60.42                   0.331445         -105.61         0.820786         163.302         0.821256         163.329         0.331905        -105.627
60.43                   0.332021        -106.338         0.817099         163.197         0.817504         163.219          0.33238        -106.348
60.44                   0.332526        -107.049         0.813545         163.101         0.813878         163.117         0.332791         -107.05
60.45                    0.33297        -107.743         0.810121         163.012         0.810375         163.023         0.333148        -107.733
60.46                    0.33336         -108.42         0.806821         162.929         0.806991         162.936          0.33346        -108.398
60.47                   0.333704        -109.081          0.80364         162.851         0.803721         162.855         0.333734        -109.047
60.48                   0.334009        -109.728          0.80057         162.778         0.800561         162.778         0.333977         -109.68
60.49                   0.334279        -110.361         0.797607         162.708         0.797505         162.706         0.334196        -110.298
60.5                     0.33452         -110.98         0.794743         162.641         0.794548         162.638         0.334394        -110.903
60.51                   0.334736        -111.588         0.791973         162.577         0.791685         162.572         0.334577        -111.495
60.52                   0.334932        -112.183         0.789289         162.514         0.788909          162.51         0.334748        -112.074
60.53                   0.335109        -112.767         0.786687         162.454         0.786216          162.45          0.33491        -112.643
60.54                   0.335272        -113.341          0.78416         162.395           0.7836         162.391         0.335066        -113.201
60.55                   0.335423        -113.905         0.781702         162.337         0.781056         162.334         0.335219         -113.75
60.56                   0.335563         -114.46          0.77931          162.28          0.77858         162.279          0.33537        -114.289
60.57                   0.335695        -115.006         0.776977         162.223         0.776167         162.224         0.335521         -114.82
60.58                   0.335821        -115.544         0.774699         162.167         0.773812         162.171         0.335673        -115.344
60.59                   0.335941        -116.074         0.772471         162.111         0.771512         162.118         0.335828         -115.86
60.6                    0.336058        -116.597         0.770291         162.056         0.769262         162.065         0.335987         -116.37
60.61                   0.336172        -117.113         0.768153         162.001         0.767059         162.013         0.336149        -116.874
60.62                   0.336284        -117.622         0.766054         161.945         0.764899         161.962         0.336316        -117.372
60.63                   0.336395        -118.126         0.763991          161.89          0.76278         161.911         0.336489        -117.865
60.64                   0.336506        -118.623         0.761961         161.834         0.760698          161.86         0.336666        -118.354
60.65                   0.336617        -119.115          0.75996         161.779          0.75865         161.809         0.336849        -118.838
60.66                   0.336729        -119.602         0.757987         161.723         0.756634         161.758         0.337037        -119.319
60.67                   0.336841        -120.085         0.756039         161.668         0.754648         161.707          0.33723        -119.795
60.68                   0.336956        -120.562         0.754113         161.612         0.752688         161.656         0.337427        -120.269
60.69                   0.337072        -121.036         0.752207         161.556         0.750753         161.605         0.337628         -120.74
60.7                     0.33719        -121.505         0.750319         161.499         0.748842         161.555         0.337833        -121.209
60.71                    0.33731         -121.97         0.748448         161.443         0.746951         161.504         0.338041        -121.675
60.72                   0.337433        -122.432         0.746591         161.387          0.74508         161.453         0.338251        -122.139
60.73                   0.337558         -122.89         0.744747          161.33         0.743227         161.402         0.338461        -122.601
60.74                   0.337685        -123.344         0.742915         161.274          0.74139         161.352         0.338672        -123.062
60.75                   0.337815        -123.796         0.741094         161.217         0.739569         161.301         0.338881        -123.521
60.76                   0.337948        -124.245         0.739281         161.161         0.737762         161.251         0.339088        -123.979
60.77                   0.338083        -124.691         0.737476         161.104         0.735968           161.2         0.339291        -124.436
60.78                   0.338221        -125.134         0.735679         161.048         0.734187          161.15          0.33949        -124.891
60.79                   0.338361        -125.574         0.733887         160.992         0.732417           161.1         0.339682        -125.345
60.8                    0.338504        -126.013           0.7321         160.936         0.730658          161.05         0.339867        -125.798
60.81                    0.33865        -126.448         0.730317          160.88         0.728909             161         0.340044        -126.249
60.82                   0.338797        -126.882         0.728538         160.824         0.727171         160.951         0.340212        -126.699
60.83                   0.338947        -127.313         0.726762         160.769         0.725442         160.902         0.340369        -127.147
60.84                     0.3391        -127.743         0.724988         160.714         0.723724         160.853         0.340516        -127.593
60.85                   0.339254         -128.17         0.723216         160.659         0.722016         160.804         0.340652        -128.037
60.86                   0.339411        -128.595         0.721445         160.605         0.720318         160.756         0.340778        -128.479
60.87                   0.339569        -129.019         0.719675         160.551         0.718631         160.708         0.340893        -128.918
60.88                    0.33973        -129.441         0.717906         160.498         0.716957          160.66         0.340998        -129.354
60.89                   0.339892        -129.861         0.716137         160.445         0.715295         160.612         0.341095        -129.787
60.9                    0.340056         -130.28         0.714367         160.393         0.713649         160.564         0.341184        -130.217
60.91                   0.340222        -130.697         0.712597         160.341         0.712019         160.517         0.341267        -130.643
60.92                   0.340389        -131.112         0.710827          160.29         0.710407         160.468         0.341346        -131.066
60.93                   0.340557        -131.526         0.709056          160.24         0.708813         160.419         0.341422        -131.485
60.94                   0.340728        -131.939         0.707284          160.19         0.707238         160.368         0.341497        -131.901
60.95                   0.340899         -132.35         0.705511         160.142         0.705676         160.315         0.341573        -132.314
60.96                   0.341072        -132.759         0.703738         160.094         0.704121         160.258         0.341653        -132.723
60.97                   0.341246        -133.168         0.701963         160.046         0.702553         160.196         0.341736        -133.128
60.98                   0.341421        -133.575         0.700187             160         0.700948         160.131         0.341825        -133.531
60.99                   0.341597        -133.981          0.69841         159.955         0.699274         160.061         0.341922        -133.931
61                      0.341774        -134.385         0.696633          159.91         0.697504          159.99         0.342025        -134.328
61.01                   0.341952        -134.788         0.694854         159.867         0.695631         159.921         0.342138        -134.723
61.02                   0.342131         -135.19         0.693075         159.825         0.693674         159.858         0.342259        -135.116
61.03                   0.342309        -135.591         0.691296         159.783          0.69167         159.803         0.342388        -135.507
61.04                   0.342489        -135.991         0.689516         159.743         0.689658         159.755         0.342527        -135.896
61.05                   0.342668        -136.389         0.687737         159.704         0.687665         159.715         0.342674        -136.284
61.06                   0.342848        -136.787         0.685957         159.666         0.685707         159.679         0.342831         -136.67
61.07                   0.343029        -137.182         0.684178          159.63         0.683786         159.647         0.342995        -137.055
61.08                    0.34321        -137.577           0.6824         159.594         0.681902         159.618         0.343168        -137.439
61.09                   0.343392        -137.971         0.680623          159.56         0.680048          159.59         0.343348        -137.823
61.1                    0.343574        -138.363         0.678847         159.527          0.67822         159.563         0.343534        -138.205
61.11                   0.343756        -138.754         0.677073         159.496         0.676414         159.538         0.343727        -138.587
61.12                   0.343939        -139.144         0.675301         159.466         0.674626         159.513         0.343926        -138.969
61.13                   0.344123        -139.532         0.673531         159.437         0.672852         159.489          0.34413         -139.35
61.14                   0.344308         -139.92         0.671764         159.409          0.67109         159.465         0.344337        -139.731
61.15                   0.344493        -140.306         0.670001         159.383         0.669338         159.443         0.344549        -140.111
61.16                   0.344679        -140.691         0.668242         159.359         0.667596         159.421         0.344763        -140.491
61.17                   0.344866        -141.074         0.666487         159.335         0.665863           159.4          0.34498         -140.87
61.18                   0.345054        -141.457         0.664737         159.314         0.664137         159.381         0.345198         -141.25
61.19                   0.345243        -141.838         0.662992         159.294         0.662419         159.362         0.345417        -141.629
61.2                    0.345432        -142.218         0.661253         159.275         0.660708         159.344         0.345637        -142.007
61.21                   0.345623        -142.597          0.65952         159.258         0.659005         159.327         0.345856        -142.385
61.22                   0.345815        -142.974         0.657794         159.242         0.657309         159.311         0.346075        -142.763
61.23                   0.346008        -143.351         0.656076         159.228         0.655621         159.297         0.346292         -143.14
61.24                   0.346202        -143.726         0.654366         159.216         0.653941         159.284         0.346508        -143.517
61.25                   0.346396          -144.1         0.652664         159.204         0.652269         159.271         0.346722        -143.893
61.26                   0.346592        -144.473         0.650972         159.195         0.650606          159.26         0.346932        -144.269
61.27                   0.346789        -144.845         0.649291         159.187         0.648953          159.25          0.34714        -144.644
61.28                   0.346987        -145.215         0.647619         159.181         0.647309         159.242         0.347344        -145.018
61.29                   0.347185        -145.585         0.645959         159.176         0.645676         159.235         0.347544        -145.391
61.3                    0.347383        -145.954         0.644311         159.173         0.644054         159.228          0.34774        -145.763
61.31                   0.347582        -146.321         0.642676         159.171         0.642444         159.223          0.34793        -146.134
61.32                    0.34778        -146.687         0.641054         159.171         0.640846          159.22         0.348116        -146.504
61.33                   0.347977        -147.053         0.639447         159.172         0.639262         159.217         0.348296        -146.873
61.34                   0.348172        -147.417         0.637854         159.174         0.637691         159.216         0.348469         -147.24
61.35                   0.348366         -147.78         0.636277         159.179         0.636136         159.215         0.348637        -147.606
61.36                   0.348556        -148.143         0.634716         159.184         0.634596         159.216         0.348797        -147.971
61.37                   0.348743        -148.503         0.633172         159.191         0.633072         159.218          0.34895        -148.333
61.38                   0.348926        -148.863         0.631645         159.199         0.631566         159.221         0.349096        -148.694
61.39                   0.349103        -149.222         0.630138         159.209         0.630079         159.226         0.349234        -149.053
61.4                    0.349274        -149.579         0.628649         159.219         0.628611         159.231         0.349363         -149.41
61.41                   0.349437        -149.934         0.627181         159.231         0.627164         159.237         0.349484        -149.764
61.42                   0.349592        -150.288         0.625733         159.244         0.625739         159.243         0.349595        -150.115
61.43                   0.349737         -150.64         0.624308         159.258         0.624336         159.251         0.349697        -150.464
61.44                   0.349872        -150.989         0.622904         159.273         0.622959         159.259         0.349789         -150.81
61.45                   0.349994        -151.337         0.621524         159.288         0.621607         159.268          0.34987        -151.153
61.46                   0.350103        -151.681         0.620169         159.304         0.620282         159.277         0.349941        -151.492
61.47                   0.350199        -152.023          0.61884          159.32         0.618987         159.287         0.349999        -151.827
61.48                   0.350279        -152.361         0.617538         159.337         0.617722         159.297         0.350046        -152.159
61.49                   0.350343        -152.695         0.616265         159.353          0.61649         159.308          0.35008        -152.486
61.5                    0.350389        -153.025         0.615024         159.369         0.615293         159.318           0.3501        -152.808
61.51                   0.350417         -153.35         0.613817         159.385         0.614132         159.328         0.350107        -153.125
61.52                   0.350426         -153.67         0.612648         159.399         0.613011         159.338         0.350099        -153.436
61.53                   0.350415        -153.983         0.611519         159.413         0.611932         159.347         0.350075        -153.741
61.54                   0.350382         -154.29         0.610435         159.425         0.610898         159.355         0.350034        -154.039
61.55                   0.350328         -154.59         0.609401         159.435         0.609912         159.363         0.349976         -154.33
61.56                    0.35025        -154.881         0.608422         159.443         0.608979         159.369           0.3499        -154.612
61.57                   0.350148        -155.164         0.607503         159.449         0.608102         159.373         0.349803        -154.886
61.58                    0.35002        -155.436          0.60665         159.452         0.607286         159.375         0.349685        -155.149
61.59                   0.349865        -155.696          0.60587         159.452         0.606538         159.375         0.349544        -155.402
61.6                    0.349682        -155.944         0.605169         159.449         0.605863         159.372         0.349379        -155.642
61.61                   0.349469        -156.178         0.604555         159.441         0.605268         159.365         0.349187        -155.868
61.62                   0.349224        -156.395         0.604037         159.429         0.604763         159.354         0.348966        -156.078
61.63                   0.348945        -156.594         0.603625         159.412         0.604358         159.337         0.348713         -156.27
61.64                   0.348629        -156.772         0.603331         159.389         0.604064         159.315         0.348427        -156.442
61.65                   0.348274        -156.926         0.603169         159.358         0.603898         159.285         0.348103         -156.59
61.66                   0.347877        -157.051         0.603157         159.319         0.603877         159.247         0.347739         -156.71
61.67                   0.347434        -157.144         0.603315         159.269         0.604022         159.199          0.34733        -156.798
61.68                   0.346942        -157.198         0.603671         159.207         0.604361         159.137         0.346874        -156.848
61.69                   0.346397        -157.205         0.604259         159.129         0.604929          159.06         0.346365        -156.852
61.7                    0.345796        -157.156         0.605122         159.032         0.605769         158.964         0.345802        -156.799
61.71                    0.34514        -157.037         0.606315         158.911         0.606937         158.844         0.345183        -156.678
61.72                   0.344429         -156.83         0.607914         158.759          0.60851         158.693         0.344511        -156.469
61.73                   0.343676        -156.512         0.610019         158.567         0.610586         158.503         0.343796        -156.149
61.74                   0.342906        -156.048         0.612766         158.323         0.613303         158.259         0.343064        -155.684
61.75                   0.342179        -155.387          0.61635         158.005         0.616856         157.942         0.342375        -155.023
61.76                   0.341621        -154.457         0.621049         157.585         0.621522         157.523         0.341856        -154.093
61.77                   0.341512        -153.143         0.627282         157.011          0.62772         156.951         0.341786        -152.779
61.78                   0.342481        -151.265         0.635687           156.2         0.636086         156.141         0.342794        -150.904
61.79                   0.346041         -148.54         0.647267          154.99         0.647623         154.932         0.346395        -148.182
61.8                    0.356134        -144.554         0.663553         153.046         0.663855         152.992         0.356528        -144.201
61.81                   0.383997        -138.984         0.686253         149.582         0.686479         149.532         0.384429        -138.638
61.82                   0.462714        -133.378         0.710971         142.465         0.711079         142.428         0.463178        -133.034
61.83                   0.651116        -137.709         0.669465         126.668         0.669559         126.675         0.651797        -137.347
61.84                    0.74957        -161.048          0.38402         116.455         0.384804         116.486         0.750783        -160.697
61.85                   0.620716        -175.098         0.302993         149.459          0.30351         149.358         0.621619         -174.77
61.86                   0.527391        -178.171         0.371487         161.378         0.371779         161.286         0.528067        -177.844
61.87                   0.477491         -178.18         0.418651         163.634         0.418879         163.553         0.478082        -177.851
61.88                   0.448992        -177.539         0.447411         164.023         0.447603         163.947         0.449553        -177.208
61.89                   0.431281        -176.848         0.465955         163.968          0.46612         163.896         0.431832        -176.517
61.9                    0.419502        -176.248         0.478609           163.8         0.478748          163.73         0.420053        -175.918
61.91                   0.411258         -175.76         0.487629          163.61         0.487745         163.542         0.411813        -175.431
61.92                   0.405268        -175.372         0.494269         163.425         0.494363         163.358         0.405827        -175.045
61.93                   0.400793        -175.069         0.499273         163.251         0.499346         163.186         0.401358        -174.744
61.94                   0.397387        -174.833         0.503105          163.09         0.503157         163.026         0.397956         -174.51
61.95                   0.394763         -174.65         0.506066         162.939           0.5061         162.876         0.395337         -174.33
61.96                   0.392734        -174.511         0.508364         162.796         0.508379         162.734         0.393311        -174.193
61.97                    0.39117        -174.405          0.51014         162.659         0.510138         162.598         0.391749         -174.09