! TOUCHSTONE file generated by CST MICROWAVE STUDIO
! Date and time: Thu Feb 22 13:38:49 2024
! Project name: aire_des.cst
! Header version: 2018
! Port assignment regex: !\s*Touchstone port\s*([0-9]+)\s*=\s*(CST MWS port|CST DS port)\s*([0-9]+|Zmin|Zmax)\s*\(\"(.*)\"\)(\s*mode\s*([0-9]+))?.*
! Touchstone port assignment:
! Touchstone port 1 = CST MWS port 1 ("")
! Touchstone port 2 = CST MWS port 2 ("")
# GHz S MA R 376.7
60                      0.298654        -101.173         0.873017         177.932         0.872998         177.931         0.299195        -101.187
60.01                   0.298249        -102.008         0.869431         177.895         0.869413         177.894         0.298791        -102.027
60.02                   0.297512        -102.929         0.865479         177.889         0.865462         177.888         0.298055        -102.953
60.03                   0.296319        -103.951         0.861145         177.924         0.861129         177.924          0.29686         -103.98
60.04                   0.294496        -105.085          0.85644         178.016         0.856427         178.016         0.295033         -105.12
60.05                   0.291803        -106.342         0.851432         178.183         0.851421         178.183         0.292332        -106.385
60.06                    0.28791        -107.726         0.846292          178.45         0.846285          178.45         0.288426        -107.778
60.07                   0.282383        -109.221         0.841373         178.845          0.84137         178.845         0.282875        -109.284
60.08                   0.274682        -110.772         0.837318         179.399         0.837318         179.399         0.275136        -110.848
60.09                   0.264237        -112.246         0.835177        -179.873          0.83518        -179.874         0.264632        -112.337
60.1                    0.250675        -113.373         0.836418        -178.993         0.836423        -178.993         0.250982        -113.481
60.11                   0.234299        -113.691         0.842625        -178.051         0.842628        -178.052          0.23448        -113.815
60.12                   0.216756        -112.562         0.854679         -177.22         0.854679        -177.221         0.216779        -112.696
60.13                   0.201351        -109.468          0.87176        -176.701         0.871756        -176.701         0.201203        -109.592
60.14                   0.191964        -104.603          0.89117        -176.615         0.891163        -176.615         0.191679        -104.692
60.15                   0.190613        -99.1503         0.909584         -176.94         0.909578        -176.941         0.190269         -99.186
60.16                   0.196131          -94.49         0.924659        -177.549         0.924656        -177.549         0.195804         -94.477
60.17                   0.205582        -91.2546         0.935627        -178.294         0.935627        -178.294         0.205318        -91.2083
60.18                   0.216329        -89.3404         0.942855        -179.064         0.942858        -179.064         0.216145        -89.2758
60.19                   0.226804        -88.3805         0.947164        -179.799         0.947168        -179.799         0.226697        -88.3071
60.2                    0.236319        -88.0332         0.949386         179.529         0.949391         179.529         0.236282        -87.9567
60.21                   0.244689        -88.0564         0.950193         178.925         0.950199         178.925          0.24471        -87.9797
60.22                   0.251957        -88.2954         0.950075         178.385         0.950081         178.385         0.252028        -88.2197
60.23                   0.258257        -88.6554         0.949368         177.902         0.949373         177.902         0.258369        -88.5816
60.24                   0.263736        -89.0799         0.948295         177.467         0.948299         177.467         0.263884         -89.008
60.25                   0.268535         -89.535         0.947003         177.073         0.947007         177.072         0.268712        -89.4652
60.26                   0.272772         -90.001          0.94559         176.712         0.945593         176.712         0.272975        -89.9332
60.27                   0.276548        -90.4664         0.944116         176.379         0.944119         176.379         0.276774        -90.4005
60.28                   0.279945        -90.9247         0.942621          176.07         0.942623         176.069         0.280189        -90.8605
60.29                   0.283027        -91.3725         0.941129          175.78         0.941131         175.779         0.283289        -91.3099
60.3                    0.285849        -91.8082         0.939656         175.506         0.939657         175.506         0.286126        -91.7469
60.31                   0.288455        -92.2311         0.938209         175.246          0.93821         175.246         0.288745        -92.1712
60.32                   0.290879        -92.6415         0.936794         174.997         0.936795         174.997         0.291181        -92.5827
60.33                   0.293152        -93.0397         0.935412         174.758         0.935413         174.758         0.293465         -92.982
60.34                   0.295296        -93.4266         0.934064         174.528         0.934064         174.527         0.295619        -93.3698
60.35                   0.297332        -93.8028         0.932748         174.304         0.932748         174.304         0.297664        -93.7468
60.36                   0.299276        -94.1692         0.931462         174.086         0.931462         174.086         0.299617         -94.114
60.37                   0.301143        -94.5266         0.930205         173.874         0.930205         173.874         0.301492         -94.472
60.38                   0.302944        -94.8756         0.928975         173.666         0.928974         173.665           0.3033        -94.8216
60.39                   0.304689        -95.2172         0.927768         173.461         0.927767         173.461         0.305052        -95.1636
60.4                    0.306386        -95.5518         0.926583          173.26         0.926582          173.26         0.306755        -95.4987
60.41                   0.308043        -95.8802         0.925416         173.062         0.925416         173.062         0.308418        -95.8275
60.42                   0.309666         -96.203         0.924267         172.866         0.924267         172.866         0.310047        -96.1506
60.43                    0.31126        -96.5206         0.923133         172.672         0.923133         172.672         0.311647        -96.4684
60.44                   0.312831        -96.8335         0.922011         172.479         0.922011         172.479         0.313224        -96.7816
60.45                   0.314382        -97.1423         0.920901         172.289           0.9209         172.288          0.31478        -97.0905
60.46                   0.315917        -97.4473         0.919799         172.099         0.919799         172.099          0.31632        -97.3956
60.47                   0.317439        -97.7489         0.918705          171.91         0.918704          171.91         0.317847        -97.6972
60.48                   0.318951        -98.0474         0.917616         171.722         0.917616         171.722         0.319364        -97.9958
60.49                   0.320456        -98.3432         0.916531         171.535         0.916531         171.535         0.320873        -98.2915
60.5                    0.321955        -98.6365         0.915449         171.348         0.915449         171.348         0.322377        -98.5847
60.51                   0.323451        -98.9276         0.914368         171.162         0.914369         171.162         0.323878        -98.8758
60.52                   0.324945        -99.2168         0.913287         170.976         0.913288         170.976         0.325377        -99.1648
60.53                    0.32644        -99.5043         0.912205          170.79         0.912206          170.79         0.326876        -99.4521
60.54                   0.327936        -99.7904          0.91112         170.604         0.911121         170.604         0.328377        -99.7379
60.55                   0.329435        -100.075         0.910032         170.417         0.910033         170.417         0.329881        -100.022
60.56                   0.330938        -100.359         0.908938         170.231         0.908939         170.231         0.331389        -100.306
60.57                   0.332446        -100.641         0.907838         170.044          0.90784         170.044         0.332902        -100.588
60.58                    0.33396        -100.923         0.906732         169.857         0.906733         169.857         0.334421        -100.869
60.59                   0.335481        -101.204         0.905616          169.67         0.905618          169.67         0.335947         -101.15
60.6                    0.337009        -101.485         0.904492         169.481         0.904494         169.482          0.33748         -101.43
60.61                   0.338545        -101.765         0.903357         169.293         0.903359         169.293         0.339022         -101.71
60.62                    0.34009        -102.045          0.90221         169.103         0.902213         169.103         0.340573        -101.989
60.63                   0.341643        -102.324         0.901051         168.913         0.901053         168.913         0.342132        -102.267
60.64                   0.343205        -102.604         0.899877         168.722          0.89988         168.722         0.343701        -102.546
60.65                   0.344776        -102.883         0.898688          168.53         0.898691          168.53         0.345279        -102.824
60.66                   0.346356        -103.162         0.897482         168.337         0.897485         168.337         0.346866        -103.102
60.67                   0.347943        -103.441         0.896257         168.142         0.896261         168.143         0.348462        -103.379
60.68                   0.349537        -103.719         0.895012         167.947         0.895016         167.947         0.350065        -103.656
60.69                   0.351137        -103.997         0.893743         167.749         0.893747          167.75         0.351675        -103.933
60.7                     0.35274        -104.275         0.892448          167.55         0.892453         167.551          0.35329        -104.208
60.71                   0.354342        -104.552         0.891123         167.349         0.891128          167.35         0.354906        -104.482
60.72                   0.355938        -104.827         0.889761         167.146         0.889767         167.146         0.356519        -104.754
60.73                   0.357519        -105.099         0.888355          166.94         0.888361          166.94         0.358121        -105.023
60.74                   0.359073        -105.367         0.886891          166.73         0.886898          166.73         0.359701        -105.286
60.75                   0.360574        -105.629         0.885347         166.514         0.885355         166.515         0.361238        -105.542
60.76                   0.361981        -105.878         0.883682         166.291          0.88369         166.291         0.362696        -105.782
60.77                   0.363206        -106.103         0.881806         166.055         0.881814         166.055         0.364001        -105.995
60.78                    0.36404        -106.273         0.879493         165.795         0.879501         165.795         0.364983        -106.145
60.79                    0.36385        -106.279         0.875947          165.48         0.875947          165.48         0.365146        -106.118
60.8                    0.359781        -105.279         0.865871         165.042         0.865769         165.043         0.362562        -105.117
60.81                   0.412088         -107.32         0.870117         167.521         0.870712          167.49         0.418937        -107.582
60.82                   0.384867        -108.498         0.880765         165.838         0.880728         165.831         0.385232        -108.701
60.83                   0.382597        -108.601         0.878177         165.343         0.878154          165.34         0.382854        -108.691
60.84                   0.382963        -108.804         0.875974         165.025         0.875958         165.024         0.383252        -108.851
60.85                   0.384115        -109.052         0.874004         164.758         0.873994         164.757         0.384439        -109.076
60.86                   0.385616        -109.323         0.872146         164.512         0.872138         164.511         0.385968        -109.333
60.87                   0.387308        -109.608         0.870341         164.275         0.870334         164.275         0.387682        -109.609
60.88                   0.389122        -109.902         0.868556         164.043         0.868551         164.043         0.389515        -109.896
60.89                   0.391022        -110.203         0.866774         163.814          0.86677         163.814         0.391431        -110.193
60.9                    0.392989         -110.51         0.864984         163.587         0.864981         163.586         0.393412        -110.495
60.91                   0.395012        -110.821         0.863179         163.359         0.863177         163.359         0.395446        -110.804
60.92                   0.397081        -111.137         0.861354         163.132         0.861352         163.132         0.397526        -111.117
60.93                   0.399193        -111.457         0.859505         162.904         0.859504         162.904         0.399647        -111.434
60.94                   0.401344         -111.78         0.857629         162.675         0.857628         162.675         0.401807        -111.756
60.95                   0.403532        -112.107         0.855723         162.446         0.855722         162.446         0.404003        -112.081
60.96                   0.405755        -112.437         0.853786         162.215         0.853785         162.215         0.406234         -112.41
60.97                   0.408012        -112.771         0.851814         161.983         0.851814         161.983         0.408498        -112.742
60.98                   0.410302        -113.108         0.849808         161.749         0.849807         161.749         0.410795        -113.078
60.99                   0.412625        -113.448         0.847764         161.515         0.847764         161.515         0.413125        -113.418
61                       0.41498        -113.792         0.845683         161.278         0.845683         161.278         0.415486         -113.76
61.01                   0.417367        -114.139         0.843561         161.041         0.843561         161.041          0.41788        -114.107
61.02                   0.419786         -114.49         0.841399         160.801         0.841399         160.801         0.420305        -114.457
61.03                   0.422237        -114.844         0.839194          160.56         0.839194          160.56         0.422761         -114.81
61.04                   0.424719        -115.201         0.836945         160.318         0.836945         160.318          0.42525        -115.167
61.05                   0.427234        -115.563         0.834651         160.073         0.834651         160.073          0.42777        -115.527
61.06                    0.42978        -115.927          0.83231         159.827          0.83231         159.827         0.430321        -115.892
61.07                   0.432357        -116.296         0.829921         159.579         0.829922         159.579         0.432905         -116.26
61.08                   0.434967        -116.668         0.827483          159.33         0.827484          159.33          0.43552        -116.631
61.09                   0.437609        -117.044         0.824995         159.078         0.824995         159.078         0.438168        -117.007
61.1                    0.440283        -117.424         0.822454         158.825         0.822455         158.825         0.440847        -117.387
61.11                   0.442989        -117.808          0.81986          158.57         0.819861          158.57         0.443559         -117.77
61.12                   0.445728        -118.197         0.817211         158.313         0.817212         158.313         0.446303        -118.158
61.13                   0.448499        -118.589         0.814506         158.055         0.814506         158.055          0.44908         -118.55
61.14                   0.451302        -118.985         0.811743         157.794         0.811743         157.794         0.451889        -118.946
61.15                   0.454138        -119.386         0.808921         157.532         0.808921         157.532          0.45473        -119.346
61.16                   0.457007        -119.791         0.806037         157.268         0.806037         157.268         0.457604        -119.751
61.17                   0.459909        -120.201         0.803091         157.001         0.803092         157.002         0.460511         -120.16
61.18                   0.462843        -120.615         0.800081         156.734         0.800082         156.734         0.463451        -120.574
61.19                    0.46581        -121.034         0.797006         156.464         0.797006         156.464         0.466423        -120.993
61.2                    0.468809        -121.457         0.793863         156.192         0.793863         156.192         0.469428        -121.416
61.21                   0.471841        -121.886         0.790651         155.919         0.790651         155.919         0.472466        -121.844
61.22                   0.474906        -122.319         0.787368         155.644         0.787368         155.644         0.475536        -122.277
61.23                   0.478003        -122.757         0.784013         155.367         0.784013         155.367         0.478639        -122.715
61.24                   0.481133          -123.2         0.780584         155.088         0.780584         155.088         0.481774        -123.158
61.25                   0.484295        -123.649         0.777078         154.807         0.777078         154.807         0.484941        -123.606
61.26                   0.487488        -124.103         0.773495         154.525         0.773495         154.525         0.488141         -124.06
61.27                   0.490714        -124.562         0.769832         154.242         0.769832         154.242         0.491372        -124.519
61.28                   0.493971        -125.027         0.766087         153.956         0.766087         153.956         0.494634        -124.983
61.29                   0.497259        -125.497         0.762259          153.67         0.762259          153.67         0.497928        -125.453
61.3                    0.500577        -125.973         0.758346         153.381         0.758345         153.381         0.501252        -125.929
61.31                   0.503926        -126.454         0.754345         153.092         0.754344         153.092         0.504606         -126.41
61.32                   0.507305        -126.942         0.750254         152.801         0.750254         152.801         0.507991        -126.898
61.33                   0.510712        -127.435         0.746073         152.509         0.746072         152.509         0.511404        -127.391
61.34                   0.514149        -127.935         0.741798         152.216         0.741797         152.216         0.514846         -127.89
61.35                   0.517613        -128.441         0.737428         151.921         0.737427         151.921         0.518316        -128.396
61.36                   0.521104        -128.953          0.73296         151.627         0.732959         151.627         0.521813        -128.908
61.37                   0.524621        -129.472         0.728393         151.331         0.728392         151.331         0.525336        -129.426
61.38                   0.528164        -129.997         0.723724         151.035         0.723724         151.035         0.528885        -129.951
61.39                   0.531731        -130.528         0.718952         150.738         0.718952         150.738         0.532457        -130.482
61.4                    0.535321        -131.067         0.714075         150.441         0.714074         150.441         0.536053         -131.02
61.41                   0.538932        -131.612          0.70909         150.144         0.709089         150.144         0.539671        -131.565
61.42                   0.542565        -132.164         0.703995         149.848         0.703995         149.848         0.543309        -132.117
61.43                   0.546216        -132.723         0.698789         149.552         0.698789         149.552         0.546966        -132.676
61.44                   0.549884         -133.29          0.69347         149.257          0.69347         149.257          0.55064        -133.242
61.45                   0.553568        -133.863         0.688035         148.962         0.688035         148.962          0.55433        -133.816
61.46                   0.557266        -134.444         0.682484         148.669         0.682483         148.669         0.558034        -134.396
61.47                   0.560976        -135.033         0.676813         148.378         0.676813         148.378         0.561749        -134.984
61.48                   0.564694        -135.629         0.671022         148.089         0.671022         148.089         0.565474         -135.58
61.49                    0.56842        -136.233         0.665108         147.803         0.665108         147.803         0.569206        -136.184
61.5                     0.57215        -136.845         0.659071          147.52         0.659071          147.52         0.572942        -136.795
61.51                   0.575882        -137.464         0.652909          147.24         0.652909          147.24          0.57668        -137.415
61.52                   0.579611        -138.092         0.646621         146.965         0.646621         146.965         0.580415        -138.042
61.53                   0.583336        -138.728         0.640205         146.694         0.640205         146.694         0.584146        -138.678
61.54                   0.587051        -139.373          0.63366         146.429          0.63366         146.429         0.587867        -139.321
61.55                   0.590753        -140.025         0.626987          146.17         0.626987          146.17         0.591576        -139.974
61.56                   0.594437        -140.687         0.620183         145.919         0.620184         145.919         0.595266        -140.635
61.57                   0.598099        -141.357          0.61325         145.675         0.613251         145.675         0.598934        -141.304
61.58                   0.601732        -142.036         0.606188         145.441         0.606189         145.441         0.602574        -141.983
61.59                    0.60533        -142.724         0.598996         145.217         0.598997         145.217         0.606179         -142.67
61.6                    0.608887        -143.421         0.591676         145.006         0.591677         145.006         0.609742        -143.367
61.61                   0.612394        -144.128         0.584229         144.807          0.58423         144.807         0.613256        -144.073
61.62                   0.615843        -144.844         0.576657         144.624         0.576659         144.624         0.616711        -144.788
61.63                   0.619222         -145.57         0.568964         144.458         0.568966         144.458         0.620097        -145.513
61.64                   0.622519        -146.307         0.561152         144.311         0.561154         144.311         0.623401        -146.249
61.65                   0.625721        -147.054         0.553226         144.187         0.553229         144.187          0.62661        -146.995
61.66                   0.628809        -147.811         0.545194         144.089         0.545196         144.089         0.629706        -147.751
61.67                   0.631763        -148.581         0.537062         144.019         0.537065         144.019         0.632668        -148.519
61.68                   0.634556        -149.362         0.528842         143.984         0.528845         143.984         0.635469        -149.299
61.69                   0.637156        -150.155         0.520549         143.988         0.520552         143.988         0.638078        -150.091
61.7                    0.639521        -150.963           0.5122          144.04         0.512204          144.04         0.640452        -150.897
61.71                   0.641593        -151.785         0.503824         144.146         0.503828         144.146         0.642535        -151.717
61.72                   0.643297        -152.623         0.495457         144.321         0.495461         144.321          0.64425        -152.553
61.73                   0.644524         -153.48         0.487155         144.579          0.48716         144.579          0.64549        -153.407
61.74                   0.645117        -154.358         0.479006         144.943         0.479011         144.943         0.646098        -154.282
61.75                   0.644834        -155.259         0.471149         145.444         0.471155         145.444         0.645835         -155.18
61.76                   0.643289        -156.188          0.46383         146.131         0.463836         146.131         0.644316        -156.105
61.77                   0.639812        -157.149         0.457511         147.078         0.457517         147.078         0.640877        -157.061
61.78                   0.633152        -158.137         0.453156         148.407         0.453164         148.407         0.634279        -158.042
61.79                     0.6207        -159.116         0.453069         150.321         0.453077          150.32         0.621941        -159.014
61.8                    0.596228        -159.865         0.463796         153.108         0.463803         153.108         0.597712        -159.755
61.81                   0.543616          -158.8         0.508355         156.515          0.50836         156.514         0.545699        -158.704
61.82                   0.492755        -142.694         0.655713         152.273         0.655713         152.273         0.494908        -142.869
61.83                   0.768392        -141.291         0.615256          127.45         0.615272         127.449         0.768574        -141.342
61.84                   0.793494        -152.845         0.457724         125.743         0.457724         125.742         0.793786        -152.858
61.85                   0.775431        -157.379         0.402266         129.825         0.402264         129.824         0.775723        -157.375
61.86                   0.763125         -159.85         0.376322         133.065         0.376321         133.065         0.763446        -159.837
61.87                   0.755625        -161.586         0.359587         135.482         0.359587         135.482         0.755985        -161.568
61.88                   0.751001        -162.994         0.346483         137.415         0.346484         137.415           0.7514        -162.973
61.89                   0.748117        -164.233         0.335117         139.082         0.335118         139.082         0.748555        -164.208
61.9                    0.746327        -165.373         0.324735         140.613         0.324736         140.614           0.7468        -165.347
61.91                   0.745246        -166.454         0.315007         142.089         0.315008          142.09         0.745749        -166.426
61.92                    0.74463        -167.495         0.305782         143.562         0.305784         143.562         0.745159        -167.465
61.93                    0.74432        -168.509         0.296996         145.068         0.296998         145.068         0.744872        -168.477
61.94                   0.744208        -169.504         0.288629         146.632         0.288631         146.632         0.744779        -169.471
61.95                   0.744217        -170.485         0.280687         148.274         0.280689         148.274         0.744803         -170.45
61.96                    0.74429        -171.455         0.273191         150.009         0.273192         150.009         0.744889        -171.419
61.97                   0.744386        -172.417         0.266171         151.845         0.266172         151.845         0.744996         -172.38