! TOUCHSTONE file generated by CST MICROWAVE STUDIO
! Date and time: Sat Feb 17 12:40:40 2024
! Project name: aire_def.cst
! Header version: 2018
! Port assignment regex: !\s*Touchstone port\s*([0-9]+)\s*=\s*(CST MWS port|CST DS port)\s*([0-9]+|Zmin|Zmax)\s*\(\"(.*)\"\)(\s*mode\s*([0-9]+))?.*
! Touchstone port assignment:
! Touchstone port 1 = CST MWS port 1 ("")
! Touchstone port 2 = CST MWS port 2 ("")
# GHz S MA R 376.7
60                   0.000613589        -2.33093          0.99968        -143.616         0.999805        -143.642      0.000567419        -110.883
60.01                0.000613995        -2.46166         0.999681         -143.64         0.999805        -143.666      0.000569687        -110.704
60.02                0.000614413        -2.59364         0.999681        -143.663         0.999805        -143.689      0.000571993        -110.524
60.03                0.000614842        -2.72688         0.999682        -143.687         0.999806        -143.712      0.000574338        -110.344
60.04                0.000615284        -2.86139         0.999682         -143.71         0.999806        -143.736      0.000576722        -110.164
60.05                0.000615738         -2.9972         0.999683        -143.734         0.999806        -143.759      0.000579145        -109.984
60.06                0.000616205        -3.13431         0.999683        -143.757         0.999807        -143.782       0.00058161        -109.803
60.07                0.000616684        -3.27275         0.999684        -143.781         0.999807        -143.806      0.000584116        -109.622
60.08                0.000617177        -3.41253         0.999685        -143.804         0.999807        -143.829      0.000586665        -109.442
60.09                0.000617684        -3.55367         0.999685        -143.828         0.999808        -143.852      0.000589257         -109.26
60.1                 0.000618204        -3.69617         0.999686        -143.852         0.999808        -143.876      0.000591894        -109.079
60.11                0.000618738        -3.84007         0.999686        -143.875         0.999808        -143.899      0.000594575        -108.898
60.12                0.000619287        -3.98537         0.999687        -143.899         0.999809        -143.923      0.000597303        -108.716
60.13                0.000619851        -4.13209         0.999687        -143.922         0.999809        -143.946      0.000600078        -108.535
60.14                 0.00062043        -4.28025         0.999688        -143.946         0.999809        -143.969        0.0006029        -108.353
60.15                0.000621025        -4.42987         0.999689        -143.969          0.99981        -143.993      0.000605772        -108.172
60.16                0.000621635        -4.58096         0.999689        -143.993          0.99981        -144.016      0.000608694         -107.99
60.17                0.000622262        -4.73355          0.99969        -144.016          0.99981        -144.039      0.000611667        -107.808
60.18                0.000622905        -4.88765          0.99969         -144.04         0.999811        -144.063      0.000614692        -107.626
60.19                0.000623565        -5.04327         0.999691        -144.064         0.999811        -144.086       0.00061777        -107.444
60.2                 0.000624243        -5.20045         0.999692        -144.087         0.999811        -144.109      0.000620903        -107.263
60.21                0.000624939        -5.35919         0.999692        -144.111         0.999812        -144.133      0.000624092        -107.081
60.22                0.000625652        -5.51951         0.999693        -144.134         0.999812        -144.156      0.000627337        -106.899
60.23                0.000626385        -5.68144         0.999693        -144.158         0.999812         -144.18      0.000630641        -106.718
60.24                0.000627137        -5.84499         0.999694        -144.181         0.999813        -144.203      0.000634004        -106.536
60.25                0.000627908        -6.01019         0.999694        -144.205         0.999813        -144.226      0.000637428        -106.355
60.26                0.000628699        -6.17705         0.999695        -144.228         0.999813         -144.25      0.000640914        -106.173
60.27                0.000629511         -6.3456         0.999696        -144.252         0.999814        -144.273      0.000644463        -105.992
60.28                0.000630344        -6.51585         0.999696        -144.276         0.999814        -144.296      0.000648078        -105.811
60.29                0.000631199        -6.68782         0.999697        -144.299         0.999814         -144.32      0.000651759        -105.631
60.3                 0.000632076        -6.86154         0.999697        -144.323         0.999815        -144.343      0.000655508         -105.45
60.31                0.000632975        -7.03704         0.999698        -144.346         0.999815        -144.367      0.000659327         -105.27
60.32                0.000633898        -7.21432         0.999699         -144.37         0.999815         -144.39      0.000663217         -105.09
60.33                0.000634845        -7.39341         0.999699        -144.393         0.999816        -144.413       0.00066718         -104.91
60.34                0.000635816        -7.57433           0.9997        -144.417         0.999816        -144.437      0.000671217        -104.731
60.35                0.000636812        -7.75711           0.9997         -144.44         0.999816         -144.46      0.000675331        -104.552
60.36                0.000637834        -7.94177         0.999701        -144.464         0.999817        -144.483      0.000679523        -104.373
60.37                0.000638883        -8.12833         0.999702        -144.488         0.999817        -144.507      0.000683796        -104.195
60.38                0.000639958        -8.31682         0.999702        -144.511         0.999817         -144.53      0.000688151        -104.017
60.39                0.000641061        -8.50725         0.999703        -144.535         0.999818        -144.554      0.000692589         -103.84
60.4                 0.000642193        -8.69966         0.999704        -144.558         0.999818        -144.577      0.000697115        -103.663
60.41                0.000643354        -8.89406         0.999704        -144.582         0.999818          -144.6      0.000701728        -103.487
60.42                0.000644545        -9.09048         0.999705        -144.605         0.999819        -144.624      0.000706433        -103.311
60.43                0.000645767        -9.28895         0.999705        -144.629         0.999819        -144.647       0.00071123        -103.136
60.44                 0.00064702        -9.48948         0.999706        -144.653         0.999819         -144.67      0.000716123        -102.962
60.45                0.000648306        -9.69211         0.999707        -144.676          0.99982        -144.694      0.000721113        -102.788
60.46                0.000649625        -9.89686         0.999707          -144.7          0.99982        -144.717      0.000726204        -102.615
60.47                0.000650979        -10.1038         0.999708        -144.723          0.99982        -144.741      0.000731398        -102.442
60.48                0.000652367        -10.3128         0.999709        -144.747         0.999821        -144.764      0.000736698         -102.27
60.49                0.000653792        -10.5241         0.999709         -144.77         0.999821        -144.787      0.000742106          -102.1
60.5                 0.000655254        -10.7376          0.99971        -144.794         0.999821        -144.811      0.000747626        -101.929
60.51                0.000656754        -10.9533          0.99971        -144.817         0.999822        -144.834       0.00075326         -101.76
60.52                0.000658294        -11.1714         0.999711        -144.841         0.999822        -144.858      0.000759013        -101.592
60.53                0.000659873        -11.3917         0.999712        -144.865         0.999822        -144.881      0.000764886        -101.425
60.54                0.000661495        -11.6144         0.999712        -144.888         0.999823        -144.904      0.000770883        -101.259
60.55                0.000663159        -11.8394         0.999713        -144.912         0.999823        -144.928      0.000777008        -101.093
60.56                0.000664866        -12.0668         0.999714        -144.935         0.999823        -144.951      0.000783265        -100.929
60.57                0.000666619        -12.2966         0.999714        -144.959         0.999824        -144.975      0.000789657        -100.766
60.58                0.000668419        -12.5289         0.999715        -144.982         0.999824        -144.998      0.000796189        -100.605
60.59                0.000670266        -12.7637         0.999716        -145.006         0.999824        -145.021      0.000802863        -100.444
60.6                 0.000672163        -13.0009         0.999716         -145.03         0.999825        -145.045      0.000809685        -100.285
60.61                 0.00067411        -13.2408         0.999717        -145.053         0.999825        -145.068      0.000816659        -100.127
60.62                0.000676109        -13.4831         0.999717        -145.077         0.999825        -145.091      0.000823789        -99.9709
60.63                0.000678163        -13.7281         0.999718          -145.1         0.999826        -145.115       0.00083108         -99.816
60.64                0.000680271        -13.9757         0.999719        -145.124         0.999826        -145.138      0.000838538        -99.6627
60.65                0.000682437        -14.2259         0.999719        -145.147         0.999826        -145.162      0.000846167         -99.511
60.66                0.000684661        -14.4789          0.99972        -145.171         0.999826        -145.185      0.000853972         -99.361
60.67                0.000686946        -14.7346         0.999721        -145.195         0.999827        -145.208       0.00086196        -99.2128
60.68                0.000689294         -14.993         0.999721        -145.218         0.999827        -145.232      0.000870135        -99.0663
60.69                0.000691706        -15.2542         0.999722        -145.242         0.999827        -145.255      0.000878505        -98.9217
60.7                 0.000694184        -15.5182         0.999723        -145.265         0.999828        -145.279      0.000887075        -98.7792
60.71                0.000696731        -15.7851         0.999723        -145.289         0.999828        -145.302      0.000895852        -98.6386
60.72                0.000699349        -16.0549         0.999724        -145.312         0.999828        -145.326      0.000904843        -98.5002
60.73                 0.00070204        -16.3275         0.999725        -145.336         0.999829        -145.349      0.000914055        -98.3641
60.74                0.000704806        -16.6032         0.999725         -145.36         0.999829        -145.372      0.000923495        -98.2302
60.75                0.000707651        -16.8818         0.999726        -145.383         0.999829        -145.396      0.000933172        -98.0987
60.76                0.000710575        -17.1634         0.999727        -145.407          0.99983        -145.419      0.000943094        -97.9698
60.77                0.000713583        -17.4481         0.999727         -145.43          0.99983        -145.443      0.000953269        -97.8434
60.78                0.000716677        -17.7359         0.999728        -145.454          0.99983        -145.466      0.000963706        -97.7198
60.79                 0.00071986        -18.0268         0.999729        -145.478         0.999831        -145.489      0.000974415        -97.5989
60.8                 0.000723134        -18.3208         0.999729        -145.501         0.999831        -145.513      0.000985406        -97.4811
60.81                0.000726504        -18.6181          0.99973        -145.525         0.999831        -145.536      0.000996689        -97.3662
60.82                0.000729972        -18.9186         0.999731        -145.548         0.999832         -145.56       0.00100827        -97.2546
60.83                0.000733542        -19.2223         0.999731        -145.572         0.999832        -145.583       0.00102017        -97.1463
60.84                0.000737217        -19.5294         0.999732        -145.595         0.999832        -145.606        0.0010324        -97.0414
60.85                0.000741001        -19.8398         0.999733        -145.619         0.999832         -145.63       0.00104496        -96.9401
60.86                0.000744898        -20.1535         0.999734        -145.643         0.999833        -145.653       0.00105788        -96.8426
60.87                0.000748912        -20.4707         0.999734        -145.666         0.999833        -145.677       0.00107116         -96.749
60.88                0.000753048        -20.7914         0.999735         -145.69         0.999833          -145.7       0.00108483        -96.6595
60.89                 0.00075731        -21.1155         0.999736        -145.713         0.999834        -145.723       0.00109889        -96.5742
60.9                 0.000761702        -21.4432         0.999736        -145.737         0.999834        -145.747       0.00111336        -96.4934
60.91                0.000766229        -21.7744         0.999737         -145.76         0.999834         -145.77       0.00112826        -96.4172
60.92                0.000770898        -22.1093         0.999738        -145.784         0.999835        -145.794       0.00114361        -96.3458
60.93                0.000775712        -22.4478         0.999738        -145.808         0.999835        -145.817       0.00115943        -96.2796
60.94                0.000780678          -22.79         0.999739        -145.831         0.999835        -145.841       0.00117573        -96.2186
60.95                0.000785802        -23.1359          0.99974        -145.855         0.999836        -145.864       0.00119254        -96.1631
60.96                 0.00079109        -23.4856          0.99974        -145.878         0.999836        -145.887       0.00120988        -96.1135
60.97                0.000796548        -23.8391         0.999741        -145.902         0.999836        -145.911       0.00122778        -96.0699
60.98                0.000802184        -24.1965         0.999742        -145.926         0.999836        -145.934       0.00124626        -96.0327
60.99                0.000808005        -24.5578         0.999743        -145.949         0.999837        -145.958       0.00126534        -96.0021
61                   0.000814018         -24.923         0.999743        -145.973         0.999837        -145.981       0.00128507        -95.9786
61.01                0.000820231        -25.2922         0.999744        -145.996         0.999837        -146.005       0.00130545        -95.9623
61.02                0.000826653        -25.6655         0.999745         -146.02         0.999838        -146.028       0.00132654        -95.9538
61.03                0.000833293        -26.0429         0.999745        -146.043         0.999838        -146.051       0.00134836        -95.9533
61.04                0.000840161        -26.4244         0.999746        -146.067         0.999838        -146.075       0.00137095        -95.9614
61.05                0.000847266          -26.81         0.999747        -146.091         0.999839        -146.098       0.00139434        -95.9784
61.06                0.000854619        -27.1999         0.999748        -146.114         0.999839        -146.122       0.00141859        -96.0048
61.07                0.000862231        -27.5941         0.999748        -146.138         0.999839        -146.145       0.00144373        -96.0411
61.08                0.000870114        -27.9927         0.999749        -146.161          0.99984        -146.168       0.00146981         -96.088
61.09                0.000878281        -28.3956          0.99975        -146.185          0.99984        -146.192       0.00149688        -96.1459
61.1                 0.000886745         -28.803         0.999751        -146.209          0.99984        -146.215       0.00152499        -96.2155
61.11                0.000895519        -29.2149         0.999751        -146.232          0.99984        -146.239       0.00155421        -96.2975
61.12                 0.00090462        -29.6314         0.999752        -146.256         0.999841        -146.262        0.0015846        -96.3925
61.13                0.000914063        -30.0525         0.999753        -146.279         0.999841        -146.286       0.00161622        -96.5015
61.14                0.000923864        -30.4783         0.999754        -146.303         0.999841        -146.309       0.00164914        -96.6251
61.15                0.000934043        -30.9089         0.999754        -146.326         0.999842        -146.332       0.00168343        -96.7644
61.16                0.000944618        -31.3444         0.999755         -146.35         0.999842        -146.356       0.00171919        -96.9203
61.17                0.000955611        -31.7847         0.999756        -146.374         0.999842        -146.379        0.0017565        -97.0938
61.18                0.000967042        -32.2301         0.999757        -146.397         0.999843        -146.403       0.00179546        -97.2862
61.19                0.000978936        -32.6806         0.999757        -146.421         0.999843        -146.426       0.00183616        -97.4987
61.2                 0.000991318        -33.1362         0.999758        -146.444         0.999843         -146.45       0.00187872        -97.7327
61.21                 0.00100421        -33.5972         0.999759        -146.468         0.999844        -146.473       0.00192325        -97.9896
61.22                 0.00101766        -34.0635          0.99976        -146.492         0.999844        -146.497       0.00196989        -98.2711
61.23                 0.00103167        -34.5353          0.99976        -146.515         0.999844         -146.52       0.00201878        -98.5789
61.24                  0.0010463        -35.0127         0.999761        -146.539         0.999844        -146.543       0.00207005        -98.9151
61.25                 0.00106157        -35.4958         0.999762        -146.562         0.999845        -146.567       0.00212388        -99.2817
61.26                 0.00107752        -35.9848         0.999763        -146.586         0.999845         -146.59       0.00218043         -99.681
61.27                  0.0010942        -36.4798         0.999763        -146.609         0.999845        -146.614        0.0022399        -100.116
61.28                 0.00111166        -36.9811         0.999764        -146.633         0.999846        -146.637       0.00230249        -100.589
61.29                 0.00112994        -37.4886         0.999765        -146.657         0.999846        -146.661        0.0023684        -101.103
61.3                  0.00114909        -38.0027         0.999766         -146.68         0.999846        -146.684       0.00243789        -101.662
61.31                 0.00116918        -38.5236         0.999766        -146.704         0.999847        -146.707       0.00251118        -102.269
61.32                 0.00119027        -39.0514         0.999767        -146.727         0.999847        -146.731       0.00258855        -102.929
61.33                 0.00121242        -39.5864         0.999768        -146.751         0.999847        -146.754       0.00267027        -103.647
61.34                 0.00123573        -40.1289         0.999769        -146.775         0.999847        -146.778       0.00275665        -104.427
61.35                 0.00126026        -40.6793          0.99977        -146.798         0.999848        -146.801       0.00284799        -105.275
61.36                 0.00128612        -41.2377          0.99977        -146.822         0.999848        -146.825        0.0029446        -106.197
61.37                  0.0013134        -41.8047         0.999771        -146.845         0.999848        -146.848       0.00304682        -107.202
61.38                 0.00134221        -42.3805         0.999772        -146.869         0.999849        -146.872       0.00315495        -108.295
61.39                 0.00137269        -42.9657         0.999773        -146.893         0.999849        -146.895       0.00326929        -109.486
61.4                  0.00140497        -43.5608         0.999774        -146.916         0.999849        -146.918       0.00339013        -110.784
61.41                  0.0014392        -44.1664         0.999774         -146.94          0.99985        -146.942       0.00351767        -112.199
61.42                 0.00147556         -44.783         0.999775        -146.963          0.99985        -146.965       0.00365206        -113.743
61.43                 0.00151423        -45.4115         0.999776        -146.987          0.99985        -146.989       0.00379331        -115.426
61.44                 0.00155544        -46.0526         0.999777        -147.011          0.99985        -147.012       0.00394127        -117.263
61.45                 0.00159942        -46.7073         0.999778        -147.034         0.999851        -147.036       0.00409555        -119.265
61.46                 0.00164645        -47.3766         0.999778        -147.058         0.999851        -147.059       0.00425546        -121.447
61.47                 0.00169685        -48.0618         0.999779        -147.081         0.999851        -147.083        0.0044199        -123.821
61.48                 0.00175097        -48.7643          0.99978        -147.105         0.999852        -147.106        0.0045873        -126.401
61.49                 0.00180922        -49.4856         0.999781        -147.128         0.999852         -147.13       0.00475547        -129.195
61.5                  0.00187206        -50.2277         0.999782        -147.152         0.999852        -147.153       0.00492157        -132.212
61.51                 0.00194005        -50.9926         0.999783        -147.176         0.999853        -147.176       0.00508203        -135.455
61.52                  0.0020138        -51.7831         0.999783        -147.199         0.999853          -147.2       0.00523262        -138.919
61.53                 0.00209406        -52.6019         0.999784        -147.223         0.999853        -147.223       0.00536855        -142.595
61.54                  0.0021817        -53.4527         0.999785        -147.246         0.999854        -147.247       0.00548473        -146.462
61.55                 0.00227774        -54.3397         0.999786         -147.27         0.999854         -147.27       0.00557622        -150.492
61.56                 0.00238339        -55.2679         0.999787        -147.294         0.999854        -147.294       0.00563866        -154.644
61.57                 0.00250013        -56.2435         0.999788        -147.317         0.999854        -147.317       0.00566883        -158.874
61.58                 0.00262973        -57.2737         0.999788        -147.341         0.999855        -147.341       0.00566504        -163.129
61.59                 0.00277436        -58.3679         0.999789        -147.364         0.999855        -147.364       0.00562742        -167.355
61.6                  0.00293668        -59.5372          0.99979        -147.388         0.999855        -147.388       0.00555787        -171.502
61.61                 0.00312003        -60.7961         0.999791        -147.412         0.999856        -147.411        0.0054598        -175.524
61.62                 0.00332857        -62.1627         0.999792        -147.435         0.999856        -147.434        0.0053377        -179.382
61.63                 0.00356764        -63.6604         0.999793        -147.459         0.999856        -147.458       0.00519657         176.952
61.64                 0.00384411          -65.32         0.999793        -147.482         0.999857        -147.481       0.00504151         173.497
61.65                 0.00416697        -67.1824         0.999794        -147.506         0.999857        -147.505       0.00487727         170.263
61.66                 0.00454808        -69.3031         0.999795         -147.53         0.999857        -147.528       0.00470803         167.252
61.67                 0.00500338        -71.7593         0.999796        -147.553         0.999857        -147.552       0.00453726         164.462
61.68                 0.00555439        -74.6601         0.999797        -147.577         0.999858        -147.575       0.00436773         161.885
61.69                 0.00623024        -78.1636         0.999798          -147.6         0.999858        -147.599       0.00420155          159.51
61.7                  0.00706967         -82.504         0.999799        -147.624         0.999858        -147.622       0.00404023         157.324
61.71                 0.00812084        -88.0331         0.999799        -147.648         0.999859        -147.646       0.00388479         155.316
61.72                 0.00943119        -95.2751           0.9998        -147.671         0.999859        -147.669       0.00373588          153.47
61.73                  0.0110044        -104.963         0.999801        -147.695         0.999859        -147.693       0.00359384         151.775
61.74                  0.0126788        -117.903         0.999802        -147.718          0.99986        -147.716       0.00345879         150.216
61.75                  0.0139451        -134.299         0.999803        -147.742          0.99986        -147.739       0.00333068         148.784
61.76                  0.0140968        -152.586         0.999804        -147.765         0.999861        -147.763       0.00320935         147.466
61.77                  0.0130194        -169.708         0.999805        -147.789         0.999861        -147.786       0.00309457         146.252
61.78                  0.0113573         176.431         0.999806        -147.813         0.999861         -147.81       0.00298606         145.134
61.79                 0.00971356         165.979         0.999807        -147.836         0.999861        -147.833       0.00288349         144.103
61.8                  0.00832075         158.189         0.999808         -147.86         0.999861        -147.857       0.00278654         143.151
61.81                 0.00719939         152.282         0.999809        -147.883         0.999862         -147.88       0.00269488         142.271
61.82                 0.00630536         147.681         0.999809        -147.907         0.999862        -147.904       0.00260819         141.457
61.83                 0.00558804         143.996          0.99981        -147.931         0.999862        -147.927       0.00252617         140.704
61.84                 0.00500551         140.967         0.999811        -147.954         0.999862        -147.951        0.0024485         140.005
61.85                 0.00452599         138.419         0.999812        -147.978         0.999863        -147.974        0.0023749         139.358
61.86                 0.00412601         136.232         0.999813        -148.001         0.999863        -147.998       0.00230512         138.757
61.87                 0.00378823         134.322         0.999814        -148.025         0.999863        -148.021       0.00223889         138.199
61.88                 0.00349977         132.629         0.999815        -148.049         0.999864        -148.045       0.00217599         137.681
61.89                 0.00325093         131.108         0.999816        -148.072         0.999864        -148.068       0.00211619         137.199
61.9                  0.00303433         129.726         0.999816        -148.096         0.999864        -148.091       0.00205931          136.75
61.91                 0.00284425         128.459         0.999817        -148.119         0.999864        -148.115       0.00200514         136.332
61.92                 0.00267623         127.287         0.999818        -148.143         0.999865        -148.138       0.00195351         135.943
61.93                 0.00252672         126.195         0.999819        -148.167         0.999865        -148.162       0.00190427          135.58
61.94                  0.0023929          125.17          0.99982         -148.19         0.999865        -148.185       0.00185726         135.243
61.95                 0.00227248         124.203         0.999821        -148.214         0.999866        -148.209       0.00181234         134.928
61.96                 0.00216358         123.286         0.999822        -148.237         0.999866        -148.232       0.00176939         134.634
61.97                 0.00206465         122.414         0.999823        -148.261         0.999866        -148.256       0.00172828          134.36