! TOUCHSTONE file generated by CST MICROWAVE STUDIO
! Date and time: Wed Feb 21 09:08:46 2024
! Project name: material_prueba.cst
! Parameters = {Y=1.5}
! Header version: 2018
! Port assignment regex: !\s*Touchstone port\s*([0-9]+)\s*=\s*(CST MWS port|CST DS port)\s*([0-9]+|Zmin|Zmax)\s*\(\"(.*)\"\)(\s*mode\s*([0-9]+))?.*
! Touchstone port assignment:
! Touchstone port 1 = CST MWS port 1 ("")
! Touchstone port 2 = CST MWS port 2 ("")
# GHz S MA R 376.7
60                      0.103802        -127.465         0.994528         161.699         0.994487         161.698         0.104024        -89.1102
60.01                   0.103962        -127.498         0.994513         161.668         0.994471         161.668         0.104195         -89.151
60.02                   0.104122        -127.531         0.994497         161.637         0.994454         161.637         0.104366        -89.1917
60.03                   0.104282        -127.564         0.994481         161.606         0.994438         161.606         0.104537        -89.2323
60.04                   0.104442        -127.598         0.994466         161.576         0.994422         161.576         0.104707        -89.2728
60.05                   0.104602        -127.631          0.99445         161.545         0.994407         161.545         0.104878        -89.3132
60.06                   0.104762        -127.664         0.994435         161.514         0.994391         161.515         0.105049        -89.3534
60.07                   0.104922        -127.698          0.99442         161.483         0.994376         161.484         0.105219        -89.3936
60.08                   0.105083        -127.731         0.994405         161.453          0.99436         161.453          0.10539        -89.4336
60.09                   0.105243        -127.764         0.994391         161.422         0.994345         161.423          0.10556        -89.4735
60.1                    0.105404        -127.798         0.994376         161.391          0.99433         161.392         0.105731        -89.5133
60.11                   0.105564        -127.831         0.994362          161.36         0.994316         161.362         0.105901         -89.553
60.12                   0.105725        -127.865         0.994348         161.329         0.994301         161.331         0.106072        -89.5926
60.13                   0.105886        -127.898         0.994334         161.299         0.994287           161.3         0.106242        -89.6321
60.14                   0.106047        -127.932          0.99432         161.268         0.994273          161.27         0.106412        -89.6714
60.15                   0.106208        -127.965         0.994306         161.237         0.994259         161.239         0.106582        -89.7107
60.16                   0.106369        -127.999         0.994293         161.206         0.994245         161.209         0.106753        -89.7498
60.17                    0.10653        -128.032         0.994279         161.176         0.994232         161.178         0.106923        -89.7889
60.18                   0.106692        -128.066         0.994266         161.145         0.994218         161.147         0.107093        -89.8278
60.19                   0.106853          -128.1         0.994253         161.114         0.994205         161.117         0.107263        -89.8666
60.2                    0.107014        -128.133         0.994241         161.083         0.994192         161.086         0.107433        -89.9053
60.21                   0.107176        -128.167         0.994228         161.052          0.99418         161.056         0.107603        -89.9439
60.22                   0.107338        -128.201         0.994216         161.022         0.994168         161.025         0.107773        -89.9824
60.23                     0.1075        -128.235         0.994204         160.991         0.994156         160.995         0.107943        -90.0207
60.24                   0.107661        -128.269         0.994192          160.96         0.994144         160.964         0.108113         -90.059
60.25                   0.107823        -128.303         0.994181         160.929         0.994132         160.933         0.108282        -90.0971
60.26                   0.107985        -128.336          0.99417         160.899         0.994121         160.903         0.108452        -90.1352
60.27                   0.108148         -128.37         0.994159         160.868          0.99411         160.872         0.108622        -90.1731
60.28                    0.10831        -128.404         0.994148         160.837           0.9941         160.842         0.108792        -90.2109
60.29                   0.108472        -128.438         0.994137         160.806         0.994089         160.811         0.108961        -90.2486
60.3                    0.108635        -128.472         0.994127         160.775         0.994079         160.781         0.109131        -90.2863
60.31                   0.108797        -128.506         0.994117         160.745          0.99407          160.75           0.1093        -90.3237
60.32                    0.10896        -128.541         0.994108         160.714         0.994061         160.719          0.10947        -90.3611
60.33                   0.109122        -128.575         0.994098         160.683         0.994052         160.689         0.109639        -90.3984
60.34                   0.109285        -128.609         0.994089         160.652         0.994043         160.658         0.109809        -90.4356
60.35                   0.109448        -128.643          0.99408         160.622         0.994035         160.628         0.109978        -90.4727
60.36                   0.109611        -128.677         0.994072         160.591         0.994027         160.597         0.110147        -90.5096
60.37                   0.109774        -128.712         0.994064          160.56         0.994019         160.567         0.110317        -90.5465
60.38                   0.109937        -128.746         0.994056         160.529         0.994012         160.536         0.110486        -90.5832
60.39                   0.110101         -128.78         0.994049         160.498         0.994006         160.506         0.110655        -90.6198
60.4                    0.110264        -128.815         0.994042         160.468         0.993999         160.475         0.110824        -90.6564
60.41                   0.110428        -128.849         0.994035         160.437         0.993993         160.445         0.110993        -90.6928
60.42                   0.110591        -128.883         0.994029         160.406         0.993988         160.414         0.111162        -90.7291
60.43                   0.110755        -128.918         0.994023         160.375         0.993983         160.383         0.111331        -90.7653
60.44                   0.110919        -128.952         0.994017         160.345         0.993979         160.353           0.1115        -90.8014
60.45                   0.111082        -128.987         0.994012         160.314         0.993975         160.322         0.111669        -90.8374
60.46                   0.111246        -129.021         0.994008         160.283         0.993971         160.292         0.111838        -90.8733
60.47                   0.111411        -129.056         0.994003         160.252         0.993968         160.261         0.112007         -90.909
60.48                   0.111575        -129.091            0.994         160.221         0.993966         160.231         0.112176        -90.9447
60.49                   0.111739        -129.125         0.993996         160.191         0.993964           160.2         0.112345        -90.9803
60.5                    0.111903         -129.16         0.993993          160.16         0.993963          160.17         0.112513        -91.0157
60.51                   0.112068        -129.195         0.993991         160.129         0.993962         160.139         0.112682        -91.0511
60.52                   0.112232        -129.229         0.993989         160.098         0.993962         160.109         0.112851        -91.0863
60.53                   0.112397        -129.264         0.993988         160.067         0.993963         160.078         0.113019        -91.1214
60.54                   0.112562        -129.299         0.993987         160.036         0.993964         160.048         0.113188        -91.1565
60.55                   0.112726        -129.334         0.993986         160.006         0.993966         160.017         0.113356        -91.1914
60.56                   0.112891        -129.369         0.993987         159.975         0.993968         159.987         0.113525        -91.2262
60.57                   0.113056        -129.404         0.993987         159.944         0.993971         159.956         0.113693        -91.2609
60.58                   0.113222        -129.438         0.993989         159.913         0.993975         159.925         0.113862        -91.2955
60.59                   0.113387        -129.473         0.993991         159.882          0.99398         159.895          0.11403          -91.33
60.6                    0.113552        -129.508         0.993993         159.851         0.993985         159.864         0.114198        -91.3644
60.61                   0.113717        -129.543         0.993997          159.82         0.993992         159.834         0.114367        -91.3986
60.62                   0.113883        -129.579            0.994          159.79         0.993999         159.803         0.114535        -91.4328
60.63                   0.114049        -129.614         0.994005         159.759         0.994007         159.773         0.114703        -91.4669
60.64                   0.114214        -129.649          0.99401         159.728         0.994015         159.742         0.114871        -91.5008
60.65                    0.11438        -129.684         0.994016         159.697         0.994025         159.712         0.115039        -91.5347
60.66                   0.114546        -129.719         0.994023         159.666         0.994035         159.681         0.115207        -91.5684
60.67                   0.114712        -129.754          0.99403         159.635         0.994047          159.65         0.115375         -91.602
60.68                   0.114878         -129.79         0.994038         159.604          0.99406          159.62         0.115543        -91.6356
60.69                   0.115044        -129.825         0.994047         159.573         0.994073         159.589         0.115711         -91.669
60.7                    0.115211         -129.86         0.994057         159.542         0.994088         159.558         0.115879        -91.7023
60.71                   0.115377        -129.896         0.994068         159.511         0.994103         159.528         0.116047        -91.7355
60.72                   0.115544        -129.931         0.994079          159.48          0.99412         159.497         0.116215        -91.7686
60.73                    0.11571        -129.966         0.994091         159.449         0.994138         159.466         0.116383        -91.8016
60.74                   0.115877        -130.002         0.994105         159.418         0.994157         159.436         0.116551        -91.8345
60.75                   0.116044        -130.037         0.994119         159.387         0.994177         159.405         0.116719        -91.8673
60.76                   0.116211        -130.073         0.994134         159.356         0.994198         159.374         0.116886        -91.8999
60.77                   0.116378        -130.108          0.99415         159.325         0.994221         159.343         0.117054        -91.9325
60.78                   0.116545        -130.144         0.994167         159.294         0.994245         159.313         0.117222         -91.965
60.79                   0.116712         -130.18         0.994185         159.262          0.99427         159.282         0.117389        -91.9973
60.8                    0.116879        -130.215         0.994204         159.231         0.994297         159.251         0.117557        -92.0296
60.81                   0.117047        -130.251         0.994224           159.2         0.994325          159.22         0.117725        -92.0617
60.82                   0.117214        -130.287         0.994246         159.169         0.994355         159.189         0.117892        -92.0937
60.83                   0.117382        -130.322         0.994268         159.137         0.994386         159.158          0.11806        -92.1256
60.84                    0.11755        -130.358         0.994291         159.106         0.994419         159.127         0.118227        -92.1574
60.85                   0.117718        -130.394         0.994316         159.075         0.994453         159.096         0.118395        -92.1891
60.86                   0.117886         -130.43         0.994342         159.043         0.994488         159.065         0.118562        -92.2207
60.87                   0.118054        -130.466         0.994369         159.012         0.994526         159.034          0.11873        -92.2522
60.88                   0.118222        -130.502         0.994397          158.98         0.994565         159.002         0.118897        -92.2836
60.89                    0.11839        -130.538         0.994427         158.949         0.994606         158.971         0.119065        -92.3149
60.9                    0.118559        -130.573         0.994458         158.917         0.994648          158.94         0.119232        -92.3461
60.91                   0.118727        -130.609          0.99449         158.885         0.994692         158.908         0.119399        -92.3771
60.92                   0.118896        -130.646         0.994523         158.853         0.994738         158.877         0.119567        -92.4081
60.93                   0.119065        -130.682         0.994558         158.822         0.994786         158.845         0.119734        -92.4389
60.94                   0.119233        -130.718         0.994594          158.79         0.994835         158.813         0.119901        -92.4696
60.95                   0.119402        -130.754         0.994631         158.758         0.994887         158.781         0.120069        -92.5003
60.96                   0.119571         -130.79          0.99467         158.726          0.99494         158.749         0.120236        -92.5308
60.97                   0.119741        -130.826          0.99471         158.693         0.994995         158.717         0.120403        -92.5612
60.98                    0.11991        -130.862         0.994751         158.661         0.995052         158.685         0.120571        -92.5915
60.99                   0.120079        -130.899         0.994794         158.629          0.99511         158.653         0.120738        -92.6217
61                      0.120249        -130.935         0.994838         158.596         0.995171          158.62         0.120905        -92.6518
61.01                   0.120419        -130.971         0.994884         158.564         0.995233         158.587         0.121072        -92.6818
61.02                   0.120588        -131.008          0.99493         158.531         0.995297         158.555         0.121239        -92.7116
61.03                   0.120758        -131.044         0.994978         158.498         0.995363         158.522         0.121407        -92.7414
61.04                   0.120928         -131.08         0.995028         158.465          0.99543         158.488         0.121574        -92.7711
61.05                   0.121098        -131.117         0.995078         158.432         0.995499         158.455         0.121741        -92.8006
61.06                   0.121269        -131.153          0.99513         158.398          0.99557         158.421         0.121908        -92.8301
61.07                   0.121439         -131.19         0.995183         158.365         0.995641         158.388         0.122076        -92.8594
61.08                    0.12161        -131.226         0.995237         158.331         0.995714         158.354         0.122243        -92.8887
61.09                    0.12178        -131.263         0.995291         158.298         0.995789         158.319          0.12241        -92.9178
61.1                    0.121951          -131.3         0.995347         158.264         0.995864         158.285         0.122577        -92.9468
61.11                   0.122122        -131.336         0.995404          158.23          0.99594          158.25         0.122744        -92.9758
61.12                   0.122293        -131.373         0.995461         158.195         0.996017         158.215         0.122912        -93.0046
61.13                   0.122464         -131.41         0.995519         158.161         0.996094          158.18         0.123079        -93.0333
61.14                   0.122635        -131.447         0.995577         158.126         0.996171         158.144         0.123246        -93.0619
61.15                   0.122807        -131.483         0.995635         158.091         0.996248         158.108         0.123413        -93.0904
61.16                   0.122978         -131.52         0.995694         158.056         0.996325         158.072         0.123581        -93.1188
61.17                    0.12315        -131.557         0.995752          158.02         0.996401         158.035         0.123748        -93.1471
61.18                   0.123322        -131.594          0.99581         157.984         0.996477         157.998         0.123915        -93.1753
61.19                   0.123494        -131.631         0.995868         157.948          0.99655         157.961         0.124083        -93.2034
61.2                    0.123666        -131.668         0.995925         157.912         0.996622         157.924          0.12425        -93.2314
61.21                   0.123838        -131.705          0.99598         157.876         0.996692         157.886         0.124417        -93.2593
61.22                   0.124011        -131.742         0.996035         157.839         0.996759         157.847         0.124584        -93.2871
61.23                   0.124183        -131.779         0.996088         157.802         0.996823         157.809         0.124752        -93.3148
61.24                   0.124356        -131.817         0.996139         157.765         0.996884          157.77         0.124919        -93.3424
61.25                   0.124529        -131.854         0.996188         157.727         0.996941         157.731         0.125086        -93.3699
61.26                   0.124701        -131.891         0.996234         157.689         0.996993         157.691         0.125254        -93.3973
61.27                   0.124875        -131.928         0.996278         157.651          0.99704         157.651         0.125421        -93.4246
61.28                   0.125048        -131.966         0.996318         157.613         0.997082         157.611         0.125589        -93.4518
61.29                   0.125221        -132.003         0.996355         157.574         0.997118          157.57         0.125756         -93.479
61.3                    0.125395        -132.041         0.996387         157.535         0.997148         157.529         0.125923         -93.506
61.31                   0.125568        -132.078         0.996416         157.496          0.99717         157.488         0.126091        -93.5329
61.32                   0.125742        -132.116          0.99644         157.457         0.997186         157.447         0.126258        -93.5597
61.33                   0.125916        -132.153         0.996459         157.417         0.997194         157.405         0.126426        -93.5864
61.34                    0.12609        -132.191         0.996472         157.377         0.997194         157.364         0.126593        -93.6131
61.35                   0.126264        -132.229          0.99648         157.337         0.997186         157.322         0.126761        -93.6396
61.36                   0.126438        -132.267         0.996482         157.297          0.99717          157.28         0.126928         -93.666
61.37                   0.126613        -132.304         0.996478         157.257         0.997144         157.238         0.127095        -93.6924
61.38                   0.126787        -132.342         0.996467         157.216          0.99711         157.196         0.127263        -93.7186
61.39                   0.126962         -132.38         0.996449         157.176         0.997068         157.153          0.12743        -93.7447
61.4                    0.127137        -132.418         0.996425         157.135         0.997016         157.111         0.127598        -93.7708
61.41                   0.127312        -132.456         0.996393         157.094         0.996956         157.069         0.127765        -93.7967
61.42                   0.127487        -132.494         0.996354         157.053         0.996887         157.027         0.127933        -93.8225
61.43                   0.127662        -132.533         0.996308         157.013         0.996809         156.986           0.1281        -93.8482
61.44                   0.127837        -132.571         0.996255         156.972         0.996723         156.944         0.128267        -93.8738
61.45                   0.128012        -132.609         0.996194         156.931          0.99663         156.903         0.128435        -93.8993
61.46                   0.128188        -132.647         0.996127         156.891         0.996529         156.862         0.128602        -93.9247
61.47                   0.128363        -132.686         0.996052          156.85          0.99642         156.821          0.12877          -93.95
61.48                   0.128539        -132.724         0.995971          156.81         0.996305          156.78         0.128937        -93.9752
61.49                   0.128715        -132.763         0.995883          156.77         0.996184          156.74         0.129105        -94.0003
61.5                    0.128891        -132.801         0.995789          156.73         0.996057           156.7         0.129272        -94.0252
61.51                   0.129067         -132.84         0.995688          156.69         0.995925         156.661         0.129439        -94.0501
61.52                   0.129243        -132.878         0.995582          156.65         0.995788         156.622         0.129607        -94.0748
61.53                   0.129419        -132.917         0.995471         156.611         0.995647         156.583         0.129774        -94.0994
61.54                   0.129595        -132.956         0.995354         156.572         0.995503         156.545         0.129942        -94.1238
61.55                   0.129771        -132.995         0.995233         156.533         0.995355         156.507         0.130109        -94.1482
61.56                   0.129948        -133.034         0.995108         156.495         0.995205         156.469         0.130277        -94.1724
61.57                   0.130124        -133.072         0.994979         156.457         0.995053         156.432         0.130444        -94.1965
61.58                   0.130301        -133.111         0.994846         156.419           0.9949         156.395         0.130612        -94.2205
61.59                   0.130478         -133.15         0.994711         156.382         0.994745         156.358         0.130779        -94.2444
61.6                    0.130655        -133.189         0.994574         156.345         0.994589         156.322         0.130947        -94.2681
61.61                   0.130832        -133.228         0.994434         156.308         0.994434         156.287         0.131115        -94.2917
61.62                   0.131009        -133.267         0.994293         156.272         0.994278         156.251         0.131282        -94.3152
61.63                   0.131186        -133.306          0.99415         156.235         0.994123         156.216          0.13145        -94.3386
61.64                   0.131363        -133.346         0.994007           156.2         0.993969         156.182         0.131618        -94.3618
61.65                    0.13154        -133.385         0.993863         156.164         0.993816         156.147         0.131786        -94.3849
61.66                   0.131718        -133.424         0.993718         156.129         0.993664         156.113         0.131954        -94.4079
61.67                   0.131895        -133.463         0.993574         156.094         0.993514          156.08         0.132122        -94.4307
61.68                   0.132073        -133.502         0.993431          156.06         0.993366         156.046          0.13229        -94.4534
61.69                   0.132251        -133.542         0.993288         156.026         0.993219         156.013         0.132458         -94.476
61.7                    0.132429        -133.581         0.993146         155.992         0.993075          155.98         0.132626        -94.4984
61.71                   0.132607        -133.621         0.993005         155.958         0.992933         155.947         0.132795        -94.5208
61.72                   0.132785         -133.66         0.992866         155.924         0.992793         155.915         0.132963         -94.543
61.73                   0.132963        -133.699         0.992728         155.891         0.992656         155.882         0.133131         -94.565
61.74                   0.133142        -133.739         0.992592         155.858         0.992521          155.85           0.1333         -94.587
61.75                    0.13332        -133.778         0.992458         155.826         0.992388         155.818         0.133469        -94.6088
61.76                   0.133499        -133.818         0.992325         155.793         0.992259         155.786         0.133638        -94.6304
61.77                   0.133678        -133.857         0.992195         155.761         0.992131         155.755         0.133806         -94.652
61.78                   0.133856        -133.897         0.992067         155.728         0.992007         155.723         0.133975        -94.6734
61.79                   0.134035        -133.937         0.991941         155.696         0.991885         155.692         0.134145        -94.6947
61.8                    0.134215        -133.976         0.991817         155.665         0.991766         155.661         0.134314        -94.7159
61.81                   0.134394        -134.016         0.991696         155.633         0.991649         155.629         0.134483        -94.7369
61.82                   0.134573        -134.056         0.991577         155.601         0.991534         155.598         0.134653        -94.7578
61.83                   0.134753        -134.096          0.99146          155.57         0.991423         155.567         0.134822        -94.7786
61.84                   0.134933        -134.135         0.991345         155.538         0.991313         155.536         0.134992        -94.7992
61.85                   0.135113        -134.175         0.991233         155.507         0.991207         155.506         0.135162        -94.8198
61.86                   0.135293        -134.215         0.991123         155.476         0.991102         155.475         0.135332        -94.8402
61.87                   0.135473        -134.255         0.991016         155.445            0.991         155.444         0.135502        -94.8605
61.88                   0.135653        -134.295         0.990911         155.414           0.9909         155.413         0.135673        -94.8806
61.89                   0.135834        -134.335         0.990808         155.383         0.990802         155.383         0.135843        -94.9006
61.9                    0.136014        -134.375         0.990707         155.352         0.990707         155.352         0.136014        -94.9205
61.91                   0.136195        -134.415         0.990608         155.321         0.990614         155.322         0.136185        -94.9403
61.92                   0.136376        -134.455         0.990512         155.291         0.990522         155.291         0.136356          -94.96
61.93                   0.136557        -134.495         0.990417          155.26         0.990433         155.261         0.136527        -94.9795
61.94                   0.136738        -134.535         0.990325         155.229         0.990345          155.23         0.136699        -94.9989
61.95                   0.136919        -134.575         0.990235         155.199          0.99026           155.2          0.13687        -95.0182
61.96                   0.137101        -134.616         0.990146         155.168         0.990176         155.169         0.137042        -95.0374
61.97                   0.137283        -134.656          0.99006         155.138         0.990094         155.139         0.137214        -95.0564