! TOUCHSTONE file generated by CST MICROWAVE STUDIO
! Date and time: Wed Feb 21 09:08:51 2024
! Project name: material_prueba.cst
! Parameters = {Y=1.75}
! Header version: 2018
! Port assignment regex: !\s*Touchstone port\s*([0-9]+)\s*=\s*(CST MWS port|CST DS port)\s*([0-9]+|Zmin|Zmax)\s*\(\"(.*)\"\)(\s*mode\s*([0-9]+))?.*
! Touchstone port assignment:
! Touchstone port 1 = CST MWS port 1 ("")
! Touchstone port 2 = CST MWS port 2 ("")
# GHz S MA R 376.7
60                       0.10462        -130.316         0.994574          161.77         0.994253         161.771         0.104752        -86.1291
60.01                   0.104802        -130.343         0.994564         161.735         0.994228         161.738         0.104932        -86.1714
60.02                   0.104984         -130.37         0.994554           161.7         0.994203         161.705         0.105112        -86.2136
60.03                   0.105166        -130.397         0.994544         161.665         0.994178         161.671         0.105292        -86.2558
60.04                   0.105347        -130.424         0.994535         161.631         0.994153         161.638         0.105472        -86.2978
60.05                   0.105529        -130.451         0.994525         161.596         0.994128         161.605         0.105653        -86.3398
60.06                   0.105711        -130.478         0.994515         161.561         0.994104         161.572         0.105833        -86.3817
60.07                   0.105893        -130.506         0.994505         161.526         0.994079         161.539         0.106013        -86.4236
60.08                   0.106074        -130.533         0.994495         161.492         0.994054         161.505         0.106193        -86.4653
60.09                   0.106256         -130.56         0.994485         161.457         0.994029         161.472         0.106373         -86.507
60.1                    0.106438        -130.588         0.994476         161.422         0.994004         161.439         0.106553        -86.5486
60.11                   0.106619        -130.615         0.994466         161.388         0.993979         161.406         0.106733        -86.5902
60.12                   0.106801        -130.643         0.994456         161.353         0.993954         161.372         0.106913        -86.6317
60.13                   0.106983         -130.67         0.994446         161.319          0.99393         161.339         0.107093        -86.6731
60.14                   0.107165        -130.698         0.994436         161.284         0.993905         161.306         0.107274        -86.7145
60.15                   0.107346        -130.725         0.994426         161.249          0.99388         161.273         0.107454        -86.7557
60.16                   0.107528        -130.753         0.994416         161.215         0.993855          161.24         0.107634        -86.7969
60.17                    0.10771        -130.781         0.994406          161.18          0.99383         161.206         0.107814        -86.8381
60.18                   0.107891        -130.808         0.994396         161.146         0.993805         161.173         0.107994        -86.8792
60.19                   0.108073        -130.836         0.994386         161.111          0.99378          161.14         0.108174        -86.9202
60.2                    0.108255        -130.864         0.994376         161.077         0.993756         161.107         0.108353        -86.9611
60.21                   0.108436        -130.892         0.994366         161.042         0.993731         161.073         0.108533         -87.002
60.22                   0.108618         -130.92         0.994356         161.008         0.993706          161.04         0.108713        -87.0428
60.23                     0.1088        -130.948         0.994346         160.973         0.993681         161.007         0.108893        -87.0835
60.24                   0.108981        -130.976         0.994336         160.939         0.993656         160.974         0.109073        -87.1242
60.25                   0.109163        -131.004         0.994326         160.905         0.993631          160.94         0.109253        -87.1648
60.26                   0.109345        -131.032         0.994315          160.87         0.993606         160.907         0.109433        -87.2054
60.27                   0.109526         -131.06         0.994305         160.836         0.993582         160.874         0.109613        -87.2459
60.28                   0.109708        -131.088         0.994295         160.801         0.993557         160.841         0.109793        -87.2863
60.29                    0.10989        -131.116         0.994284         160.767         0.993532         160.808         0.109972        -87.3266
60.3                    0.110071        -131.144         0.994274         160.733         0.993507         160.774         0.110152        -87.3669
60.31                   0.110253        -131.173         0.994264         160.698         0.993482         160.741         0.110332        -87.4071
60.32                   0.110434        -131.201         0.994253         160.664         0.993457         160.708         0.110512        -87.4473
60.33                   0.110616        -131.229         0.994243          160.63         0.993432         160.675         0.110691        -87.4874
60.34                   0.110797        -131.258         0.994232         160.595         0.993408         160.641         0.110871        -87.5275
60.35                   0.110979        -131.286         0.994222         160.561         0.993383         160.608         0.111051        -87.5674
60.36                   0.111161        -131.315         0.994211         160.527         0.993358         160.575         0.111231        -87.6073
60.37                   0.111342        -131.343           0.9942         160.493         0.993333         160.542          0.11141        -87.6472
60.38                   0.111524        -131.372         0.994189         160.458         0.993308         160.508          0.11159         -87.687
60.39                   0.111705          -131.4         0.994179         160.424         0.993283         160.475          0.11177        -87.7267
60.4                    0.111887        -131.429         0.994168          160.39         0.993258         160.442         0.111949        -87.7664
60.41                   0.112068        -131.458         0.994157         160.356         0.993234         160.409         0.112129         -87.806
60.42                    0.11225        -131.486         0.994146         160.322         0.993209         160.375         0.112308        -87.8456
60.43                   0.112431        -131.515         0.994135         160.288         0.993184         160.342         0.112488        -87.8851
60.44                   0.112612        -131.544         0.994124         160.253         0.993159         160.309         0.112668        -87.9245
60.45                   0.112794        -131.573         0.994112         160.219         0.993134         160.276         0.112847        -87.9639
60.46                   0.112975        -131.602         0.994101         160.185         0.993109         160.242         0.113027        -88.0032
60.47                   0.113157         -131.63          0.99409         160.151         0.993085         160.209         0.113206        -88.0425
60.48                   0.113338        -131.659         0.994078         160.117          0.99306         160.176         0.113386        -88.0817
60.49                   0.113519        -131.688         0.994067         160.083         0.993035         160.143         0.113565        -88.1208
60.5                    0.113701        -131.717         0.994055         160.049          0.99301         160.109         0.113745        -88.1599
60.51                   0.113882        -131.746         0.994044         160.015         0.992985         160.076         0.113924        -88.1989
60.52                   0.114063        -131.776         0.994032         159.981          0.99296         160.043         0.114104        -88.2379
60.53                   0.114245        -131.805          0.99402         159.947         0.992935          160.01         0.114283        -88.2768
60.54                   0.114426        -131.834         0.994009         159.913         0.992911         159.976         0.114462        -88.3157
60.55                   0.114607        -131.863         0.993997         159.879         0.992886         159.943         0.114642        -88.3545
60.56                   0.114789        -131.892         0.993985         159.845         0.992861          159.91         0.114821        -88.3933
60.57                    0.11497        -131.921         0.993973         159.811         0.992836         159.877         0.115001         -88.432
60.58                   0.115151        -131.951          0.99396         159.777         0.992811         159.843          0.11518        -88.4706
60.59                   0.115332         -131.98         0.993948         159.743         0.992786          159.81         0.115359        -88.5092
60.6                    0.115513        -132.009         0.993936         159.709         0.992762         159.777         0.115538        -88.5477
60.61                   0.115695        -132.039         0.993923         159.675         0.992737         159.744         0.115718        -88.5862
60.62                   0.115876        -132.068         0.993911         159.641         0.992712          159.71         0.115897        -88.6246
60.63                   0.116057        -132.098         0.993898         159.607         0.992687         159.677         0.116076         -88.663
60.64                   0.116238        -132.127         0.993886         159.573         0.992662         159.644         0.116255        -88.7013
60.65                   0.116419        -132.157         0.993873          159.54         0.992638         159.611         0.116435        -88.7396
60.66                     0.1166        -132.186          0.99386         159.506         0.992613         159.577         0.116614        -88.7778
60.67                   0.116781        -132.216         0.993847         159.472         0.992588         159.544         0.116793         -88.816
60.68                   0.116962        -132.246         0.993834         159.438         0.992563         159.511         0.116972        -88.8541
60.69                   0.117143        -132.275         0.993821         159.404         0.992538         159.478         0.117151        -88.8922
60.7                    0.117324        -132.305         0.993808         159.371         0.992514         159.444          0.11733        -88.9302
60.71                   0.117505        -132.335         0.993794         159.337         0.992489         159.411         0.117509        -88.9681
60.72                   0.117686        -132.365         0.993781         159.303         0.992464         159.378         0.117689         -89.006
60.73                   0.117867        -132.394         0.993767         159.269         0.992439         159.345         0.117868        -89.0439
60.74                   0.118048        -132.424         0.993754         159.235         0.992414         159.311         0.118047        -89.0817
60.75                   0.118229        -132.454          0.99374         159.202          0.99239         159.278         0.118226        -89.1195
60.76                    0.11841        -132.484         0.993726         159.168         0.992365         159.245         0.118405        -89.1572
60.77                   0.118591        -132.514         0.993712         159.134          0.99234         159.212         0.118584        -89.1948
60.78                   0.118772        -132.544         0.993698         159.101         0.992315         159.178         0.118763        -89.2325
60.79                   0.118952        -132.574         0.993684         159.067          0.99229         159.145         0.118942          -89.27
60.8                    0.119133        -132.604          0.99367         159.033         0.992266         159.112          0.11912        -89.3075
60.81                   0.119314        -132.634         0.993655             159         0.992241         159.079         0.119299         -89.345
60.82                   0.119495        -132.664         0.993641         158.966         0.992216         159.045         0.119478        -89.3824
60.83                   0.119675        -132.694         0.993626         158.932         0.992191         159.012         0.119657        -89.4198
60.84                   0.119856        -132.724         0.993612         158.899         0.992167         158.979         0.119836        -89.4571
60.85                   0.120037        -132.754         0.993597         158.865         0.992142         158.946         0.120015        -89.4944
60.86                   0.120217        -132.785         0.993582         158.831         0.992117         158.912         0.120194        -89.5316
60.87                   0.120398        -132.815         0.993567         158.798         0.992092         158.879         0.120372        -89.5688
60.88                   0.120579        -132.845         0.993552         158.764         0.992068         158.846         0.120551        -89.6059
60.89                   0.120759        -132.875         0.993537         158.731         0.992043         158.813          0.12073         -89.643
60.9                     0.12094        -132.906         0.993521         158.697         0.992018         158.779         0.120909          -89.68
60.91                    0.12112        -132.936         0.993506         158.664         0.991993         158.746         0.121087         -89.717
60.92                   0.121301        -132.966          0.99349          158.63         0.991969         158.713         0.121266         -89.754
60.93                   0.121481        -132.997         0.993474         158.597         0.991944          158.68         0.121445        -89.7909
60.94                   0.121662        -133.027         0.993459         158.563         0.991919         158.646         0.121623        -89.8277
60.95                   0.121842        -133.058         0.993443          158.53         0.991895         158.613         0.121802        -89.8646
60.96                   0.122022        -133.088         0.993426         158.496          0.99187          158.58         0.121981        -89.9013
60.97                   0.122203        -133.119          0.99341         158.463         0.991845         158.546         0.122159         -89.938
60.98                   0.122383        -133.149         0.993394         158.429         0.991821         158.513         0.122338        -89.9747
60.99                   0.122563         -133.18         0.993377         158.396         0.991796          158.48         0.122516        -90.0114
61                      0.122744         -133.21         0.993361         158.362         0.991771         158.447         0.122695         -90.048
61.01                   0.122924        -133.241         0.993344         158.329         0.991746         158.413         0.122873        -90.0845
61.02                   0.123104        -133.272         0.993327         158.295         0.991722          158.38         0.123052         -90.121
61.03                   0.123284        -133.302          0.99331         158.262         0.991697         158.347          0.12323        -90.1575
61.04                   0.123465        -133.333         0.993293         158.228         0.991672         158.314         0.123409        -90.1939
61.05                   0.123645        -133.364         0.993276         158.195         0.991648          158.28         0.123587        -90.2303
61.06                   0.123825        -133.394         0.993259         158.162         0.991623         158.247         0.123766        -90.2666
61.07                   0.124005        -133.425         0.993241         158.128         0.991598         158.214         0.123944        -90.3029
61.08                   0.124185        -133.456         0.993224         158.095         0.991574         158.181         0.124122        -90.3392
61.09                   0.124365        -133.487         0.993206         158.062         0.991549         158.147         0.124301        -90.3754
61.1                    0.124545        -133.518         0.993188         158.028         0.991525         158.114         0.124479        -90.4115
61.11                   0.124725        -133.549          0.99317         157.995           0.9915         158.081         0.124657        -90.4477
61.12                   0.124905        -133.579         0.993152         157.961         0.991475         158.047         0.124836        -90.4838
61.13                   0.125085         -133.61         0.993134         157.928         0.991451         158.014         0.125014        -90.5198
61.14                   0.125265        -133.641         0.993116         157.895         0.991426         157.981         0.125192        -90.5558
61.15                   0.125445        -133.672         0.993097         157.862         0.991402         157.948          0.12537        -90.5918
61.16                   0.125624        -133.703         0.993079         157.828         0.991377         157.914         0.125549        -90.6277
61.17                   0.125804        -133.734          0.99306         157.795         0.991352         157.881         0.125727        -90.6636
61.18                   0.125984        -133.765         0.993041         157.762         0.991328         157.848         0.125905        -90.6994
61.19                   0.126164        -133.796         0.993022         157.728         0.991303         157.815         0.126083        -90.7353
61.2                    0.126343        -133.828         0.993003         157.695         0.991279         157.781         0.126261         -90.771
61.21                   0.126523        -133.859         0.992984         157.662         0.991254         157.748         0.126439        -90.8068
61.22                   0.126703         -133.89         0.992964         157.629          0.99123         157.715         0.126617        -90.8425
61.23                   0.126882        -133.921         0.992945         157.595         0.991205         157.681         0.126795        -90.8781
61.24                   0.127062        -133.952         0.992925         157.562          0.99118         157.648         0.126973        -90.9137
61.25                   0.127241        -133.983         0.992905         157.529         0.991156         157.615         0.127151        -90.9493
61.26                   0.127421        -134.015         0.992885         157.496         0.991131         157.582         0.127329        -90.9848
61.27                     0.1276        -134.046         0.992865         157.463         0.991107         157.548         0.127507        -91.0203
61.28                    0.12778        -134.077         0.992845         157.429         0.991082         157.515         0.127685        -91.0558
61.29                   0.127959        -134.109         0.992825         157.396         0.991058         157.482         0.127863        -91.0912
61.3                    0.128139         -134.14         0.992804         157.363         0.991033         157.449         0.128041        -91.1266
61.31                   0.128318        -134.171         0.992783          157.33         0.991009         157.415         0.128219         -91.162
61.32                   0.128497        -134.203         0.992763         157.297         0.990984         157.382         0.128397        -91.1973
61.33                   0.128676        -134.234         0.992742         157.263          0.99096         157.349         0.128575        -91.2326
61.34                   0.128856        -134.265         0.992721          157.23         0.990936         157.315         0.128753        -91.2678
61.35                   0.129035        -134.297           0.9927         157.197         0.990911         157.282          0.12893         -91.303
61.36                   0.129214        -134.328         0.992678         157.164         0.990887         157.249         0.129108        -91.3382
61.37                   0.129393         -134.36         0.992657         157.131         0.990862         157.216         0.129286        -91.3734
61.38                   0.129572        -134.391         0.992635         157.098         0.990838         157.182         0.129464        -91.4085
61.39                   0.129751        -134.423         0.992614         157.065         0.990813         157.149         0.129641        -91.4435
61.4                     0.12993        -134.454         0.992592         157.032         0.990789         157.116         0.129819        -91.4786
61.41                   0.130109        -134.486          0.99257         156.998         0.990765         157.082         0.129997        -91.5136
61.42                   0.130288        -134.517         0.992548         156.965          0.99074         157.049         0.130174        -91.5485
61.43                   0.130467        -134.549         0.992525         156.932         0.990716         157.016         0.130352        -91.5835
61.44                   0.130646        -134.581         0.992503         156.899         0.990692         156.983          0.13053        -91.6184
61.45                   0.130825        -134.612         0.992481         156.866         0.990667         156.949         0.130707        -91.6532
61.46                   0.131004        -134.644         0.992458         156.833         0.990643         156.916         0.130885         -91.688
61.47                   0.131183        -134.676         0.992435           156.8         0.990619         156.883         0.131062        -91.7228
61.48                   0.131361        -134.707         0.992412         156.767         0.990594         156.849          0.13124        -91.7576
61.49                    0.13154        -134.739         0.992389         156.734          0.99057         156.816         0.131417        -91.7923
61.5                    0.131719        -134.771         0.992366         156.701         0.990546         156.783         0.131595         -91.827
61.51                   0.131897        -134.802         0.992343         156.668         0.990522          156.75         0.131772        -91.8617
61.52                   0.132076        -134.834         0.992319         156.635         0.990497         156.716          0.13195        -91.8963
61.53                   0.132254        -134.866         0.992296         156.602         0.990473         156.683         0.132127        -91.9309
61.54                   0.132433        -134.898         0.992272         156.569         0.990449          156.65         0.132305        -91.9655
61.55                   0.132611         -134.93         0.992248         156.536         0.990425         156.616         0.132482             -92
61.56                    0.13279        -134.962         0.992224         156.503           0.9904         156.583         0.132659        -92.0345
61.57                   0.132968        -134.993           0.9922          156.47         0.990376          156.55         0.132837         -92.069
61.58                   0.133147        -135.025         0.992176         156.437         0.990352         156.517         0.133014        -92.1035
61.59                   0.133325        -135.057         0.992151         156.404         0.990328         156.483         0.133191        -92.1379
61.6                    0.133503        -135.089         0.992127         156.371         0.990304          156.45         0.133368        -92.1723
61.61                   0.133681        -135.121         0.992102         156.338         0.990279         156.417         0.133546        -92.2066
61.62                    0.13386        -135.153         0.992077         156.305         0.990255         156.383         0.133723        -92.2409
61.63                   0.134038        -135.185         0.992052         156.272         0.990231          156.35           0.1339        -92.2752
61.64                   0.134216        -135.217         0.992027         156.239         0.990207         156.317         0.134077        -92.3095
61.65                   0.134394        -135.249         0.992002         156.206         0.990183         156.284         0.134254        -92.3437
61.66                   0.134572        -135.281         0.991977         156.173         0.990159          156.25         0.134432        -92.3779
61.67                    0.13475        -135.313         0.991951          156.14         0.990135         156.217         0.134609        -92.4121
61.68                   0.134928        -135.345         0.991926         156.107         0.990111         156.184         0.134786        -92.4462
61.69                   0.135106        -135.377           0.9919         156.074         0.990087          156.15         0.134963        -92.4803
61.7                    0.135284        -135.409         0.991874         156.041         0.990063         156.117          0.13514        -92.5144
61.71                   0.135462        -135.441         0.991848         156.008         0.990039         156.084         0.135317        -92.5485
61.72                    0.13564        -135.473         0.991822         155.975         0.990015         156.051         0.135494        -92.5825
61.73                   0.135817        -135.505         0.991796         155.943         0.989991         156.017         0.135671        -92.6165
61.74                   0.135995        -135.538         0.991769          155.91         0.989967         155.984         0.135848        -92.6505
61.75                   0.136173         -135.57         0.991743         155.877         0.989943         155.951         0.136025        -92.6844
61.76                    0.13635        -135.602         0.991716         155.844         0.989919         155.917         0.136202        -92.7183
61.77                   0.136528        -135.634          0.99169         155.811         0.989895         155.884         0.136378        -92.7522
61.78                   0.136706        -135.666         0.991663         155.778         0.989871         155.851         0.136555        -92.7861
61.79                   0.136883        -135.699         0.991636         155.745         0.989848         155.818         0.136732        -92.8199
61.8                    0.137061        -135.731         0.991609         155.712         0.989824         155.784         0.136909        -92.8537
61.81                   0.137238        -135.763         0.991581         155.679           0.9898         155.751         0.137086        -92.8875
61.82                   0.137415        -135.795         0.991554         155.646         0.989776         155.718         0.137263        -92.9213
61.83                   0.137593        -135.828         0.991526         155.614         0.989752         155.684         0.137439         -92.955
61.84                    0.13777         -135.86         0.991499         155.581         0.989729         155.651         0.137616        -92.9887
61.85                   0.137947        -135.892         0.991471         155.548         0.989705         155.618         0.137793        -93.0224
61.86                   0.138125        -135.924         0.991443         155.515         0.989681         155.585         0.137969         -93.056
61.87                   0.138302        -135.957         0.991415         155.482         0.989657         155.551         0.138146        -93.0896
61.88                   0.138479        -135.989         0.991387         155.449         0.989634         155.518         0.138323        -93.1232
61.89                   0.138656        -136.021         0.991359         155.416          0.98961         155.485         0.138499        -93.1568
61.9                    0.138833        -136.054          0.99133         155.384         0.989586         155.451         0.138676        -93.1904
61.91                    0.13901        -136.086         0.991302         155.351         0.989563         155.418         0.138852        -93.2239
61.92                   0.139187        -136.119         0.991273         155.318         0.989539         155.385         0.139029        -93.2574
61.93                   0.139364        -136.151         0.991245         155.285         0.989516         155.351         0.139205        -93.2908
61.94                   0.139541        -136.183         0.991216         155.252         0.989492         155.318         0.139382        -93.3243
61.95                   0.139718        -136.216         0.991187         155.219         0.989469         155.285         0.139558        -93.3577
61.96                   0.139895        -136.248         0.991158         155.187         0.989445         155.252         0.139735        -93.3911
61.97                   0.140071        -136.281         0.991128         155.154         0.989422         155.218         0.139911        -93.4245