! TOUCHSTONE file generated by CST MICROWAVE STUDIO
! Date and time: Wed Feb 21 09:08:32 2024
! Project name: material_prueba.cst
! Parameters = {Y=0.25}
! Header version: 2018
! Port assignment regex: !\s*Touchstone port\s*([0-9]+)\s*=\s*(CST MWS port|CST DS port)\s*([0-9]+|Zmin|Zmax)\s*\(\"(.*)\"\)(\s*mode\s*([0-9]+))?.*
! Touchstone port assignment:
! Touchstone port 1 = CST MWS port 1 ("")
! Touchstone port 2 = CST MWS port 2 ("")
# GHz S MA R 376.7
60                      0.106629        -109.162         0.994299         161.399         0.994299         161.399         0.106629         -108.04
60.01                   0.106809         -109.19         0.994281         161.365         0.994281         161.365          0.10679         -108.06
60.02                   0.106989        -109.217         0.994263          161.33         0.994263          161.33         0.106951         -108.08
60.03                   0.107168        -109.245         0.994245         161.296         0.994245         161.296         0.107112          -108.1
60.04                   0.107348        -109.272         0.994227         161.262         0.994227         161.262         0.107273         -108.12
60.05                   0.107528          -109.3         0.994209         161.228         0.994209         161.228         0.107434         -108.14
60.06                   0.107708        -109.328          0.99419         161.194          0.99419         161.194         0.107596        -108.161
60.07                   0.107888        -109.356         0.994172         161.159         0.994172         161.159         0.107757        -108.182
60.08                   0.108068        -109.384         0.994154         161.125         0.994154         161.125         0.107918        -108.203
60.09                   0.108248        -109.412         0.994135         161.091         0.994135         161.091          0.10808        -108.225
60.1                    0.108429         -109.44         0.994117         161.057         0.994117         161.057         0.108241        -108.246
60.11                   0.108609        -109.468         0.994099         161.023         0.994098         161.023         0.108403        -108.268
60.12                   0.108789        -109.496          0.99408         160.988          0.99408         160.988         0.108564         -108.29
60.13                   0.108969        -109.524         0.994061         160.954         0.994061         160.954         0.108726        -108.312
60.14                    0.10915        -109.553         0.994043          160.92         0.994043          160.92         0.108888        -108.335
60.15                    0.10933        -109.581         0.994024         160.886         0.994024         160.886         0.109049        -108.358
60.16                   0.109511        -109.609         0.994005         160.852         0.994005         160.852         0.109211         -108.38
60.17                   0.109691        -109.638         0.993987         160.817         0.993986         160.817         0.109373        -108.404
60.18                   0.109872        -109.667         0.993968         160.783         0.993967         160.783         0.109535        -108.427
60.19                   0.110052        -109.695         0.993949         160.749         0.993949         160.749         0.109698         -108.45
60.2                    0.110233        -109.724          0.99393         160.715          0.99393         160.715          0.10986        -108.474
60.21                   0.110414        -109.753         0.993911         160.681         0.993911         160.681         0.110022        -108.498
60.22                   0.110595        -109.782         0.993892         160.647         0.993891         160.647         0.110185        -108.522
60.23                   0.110776        -109.811         0.993873         160.612         0.993872         160.612         0.110347        -108.547
60.24                   0.110956         -109.84         0.993854         160.578         0.993853         160.578          0.11051        -108.571
60.25                   0.111137        -109.869         0.993834         160.544         0.993834         160.544         0.110673        -108.596
60.26                   0.111318        -109.898         0.993815          160.51         0.993815          160.51         0.110835        -108.621
60.27                   0.111499        -109.927         0.993796         160.476         0.993795         160.476         0.110998        -108.646
60.28                    0.11168        -109.956         0.993776         160.441         0.993776         160.441         0.111161        -108.672
60.29                   0.111862        -109.986         0.993757         160.407         0.993757         160.407         0.111325        -108.697
60.3                    0.112043        -110.015         0.993737         160.373         0.993737         160.373         0.111488        -108.723
60.31                   0.112224        -110.044         0.993718         160.339         0.993718         160.339         0.111651        -108.749
60.32                   0.112405        -110.074         0.993698         160.305         0.993698         160.305         0.111815        -108.775
60.33                   0.112587        -110.104         0.993679         160.271         0.993678         160.271         0.111979        -108.802
60.34                   0.112768        -110.133         0.993659         160.236         0.993659         160.236         0.112142        -108.828
60.35                   0.112949        -110.163         0.993639         160.202         0.993639         160.202         0.112306        -108.855
60.36                   0.113131        -110.193          0.99362         160.168         0.993619         160.168          0.11247        -108.882
60.37                   0.113312        -110.223           0.9936         160.134         0.993599         160.134         0.112634        -108.909
60.38                   0.113494        -110.252          0.99358           160.1         0.993579           160.1         0.112799        -108.937
60.39                   0.113676        -110.282          0.99356         160.066         0.993559         160.066         0.112963        -108.964
60.4                    0.113857        -110.312          0.99354         160.032         0.993539         160.032         0.113128        -108.992
60.41                   0.114039        -110.343          0.99352         159.997         0.993519         159.997         0.113293         -109.02
60.42                   0.114221        -110.373           0.9935         159.963         0.993499         159.963         0.113458        -109.048
60.43                   0.114402        -110.403          0.99348         159.929         0.993479         159.929         0.113623        -109.077
60.44                   0.114584        -110.433         0.993459         159.895         0.993459         159.895         0.113788        -109.106
60.45                   0.114766        -110.464         0.993439         159.861         0.993438         159.861         0.113953        -109.134
60.46                   0.114948        -110.494         0.993419         159.827         0.993418         159.827         0.114119        -109.163
60.47                    0.11513        -110.525         0.993398         159.793         0.993398         159.793         0.114284        -109.193
60.48                   0.115312        -110.555         0.993378         159.758         0.993377         159.758          0.11445        -109.222
60.49                   0.115494        -110.586         0.993357         159.724         0.993357         159.724         0.114616        -109.251
60.5                    0.115676        -110.617         0.993337          159.69         0.993336          159.69         0.114783        -109.281
60.51                   0.115858        -110.647         0.993316         159.656         0.993316         159.656         0.114949        -109.311
60.52                   0.116041        -110.678         0.993296         159.622         0.993295         159.622         0.115115        -109.341
60.53                   0.116223        -110.709         0.993275         159.588         0.993274         159.588         0.115282        -109.372
60.54                   0.116405         -110.74         0.993254         159.554         0.993254         159.554         0.115449        -109.402
60.55                   0.116587        -110.771         0.993234         159.519         0.993233         159.519         0.115616        -109.433
60.56                    0.11677        -110.802         0.993213         159.485         0.993212         159.485         0.115784        -109.464
60.57                   0.116952        -110.833         0.993192         159.451         0.993191         159.451         0.115951        -109.495
60.58                   0.117135        -110.864         0.993171         159.417          0.99317         159.417         0.116119        -109.526
60.59                   0.117317        -110.896          0.99315         159.383         0.993149         159.383         0.116287        -109.557
60.6                      0.1175        -110.927         0.993129         159.349         0.993128         159.349         0.116455        -109.589
60.61                   0.117682        -110.958         0.993108         159.315         0.993107         159.315         0.116623        -109.621
60.62                   0.117865         -110.99         0.993087         159.281         0.993086         159.281         0.116792        -109.653
60.63                   0.118047        -111.021         0.993065         159.247         0.993065         159.247         0.116961        -109.685
60.64                    0.11823        -111.053         0.993044         159.212         0.993043         159.212          0.11713        -109.717
60.65                   0.118413        -111.084         0.993023         159.178         0.993022         159.178         0.117299        -109.749
60.66                   0.118596        -111.116         0.993001         159.144         0.993001         159.144         0.117469        -109.782
60.67                   0.118779        -111.148          0.99298          159.11         0.992979          159.11         0.117638        -109.815
60.68                   0.118961         -111.18         0.992959         159.076         0.992958         159.076         0.117808        -109.848
60.69                   0.119144        -111.212         0.992937         159.042         0.992936         159.042         0.117978        -109.881
60.7                    0.119327        -111.243         0.992915         159.008         0.992915         159.008         0.118149        -109.914
60.71                    0.11951        -111.275         0.992894         158.974         0.992893         158.974          0.11832        -109.948
60.72                   0.119693        -111.308         0.992872          158.94         0.992871          158.94          0.11849        -109.981
60.73                   0.119876         -111.34          0.99285         158.906          0.99285         158.906         0.118662        -110.015
60.74                   0.120059        -111.372         0.992829         158.871         0.992828         158.872         0.118833        -110.049
60.75                   0.120243        -111.404         0.992807         158.837         0.992806         158.837         0.119005        -110.083
60.76                   0.120426        -111.436         0.992785         158.803         0.992784         158.803         0.119177        -110.117
60.77                   0.120609        -111.469         0.992763         158.769         0.992762         158.769         0.119349        -110.152
60.78                   0.120792        -111.501         0.992741         158.735          0.99274         158.735         0.119521        -110.186
60.79                   0.120976        -111.534         0.992719         158.701         0.992718         158.701         0.119694        -110.221
60.8                    0.121159        -111.566         0.992697         158.667         0.992696         158.667         0.119867        -110.256
60.81                   0.121342        -111.599         0.992675         158.633         0.992674         158.633         0.120041         -110.29
60.82                   0.121526        -111.631         0.992652         158.599         0.992652         158.599         0.120214        -110.326
60.83                   0.121709        -111.664          0.99263         158.565         0.992629         158.565         0.120388        -110.361
60.84                   0.121893        -111.697         0.992608         158.531         0.992607         158.531         0.120562        -110.396
60.85                   0.122076         -111.73         0.992586         158.497         0.992585         158.497         0.120737        -110.432
60.86                    0.12226        -111.763         0.992563         158.463         0.992562         158.463         0.120912        -110.467
60.87                   0.122443        -111.796         0.992541         158.429          0.99254         158.429         0.121087        -110.503
60.88                   0.122627        -111.829         0.992518         158.394         0.992517         158.395         0.121262        -110.539
60.89                   0.122811        -111.862         0.992496          158.36         0.992495          158.36         0.121438        -110.575
60.9                    0.122994        -111.895         0.992473         158.326         0.992472         158.326         0.121614        -110.611
60.91                   0.123178        -111.928          0.99245         158.292          0.99245         158.292          0.12179        -110.648
60.92                   0.123362        -111.961         0.992428         158.258         0.992427         158.258         0.121967        -110.684
60.93                   0.123546        -111.995         0.992405         158.224         0.992404         158.224         0.122143        -110.721
60.94                    0.12373        -112.028         0.992382          158.19         0.992381          158.19         0.122321        -110.757
60.95                   0.123914        -112.062         0.992359         158.156         0.992358         158.156         0.122498        -110.794
60.96                   0.124097        -112.095         0.992336         158.122         0.992335         158.122         0.122676        -110.831
60.97                   0.124281        -112.129         0.992313         158.088         0.992312         158.088         0.122854        -110.868
60.98                   0.124465        -112.162          0.99229         158.054         0.992289         158.054         0.123033        -110.905
60.99                    0.12465        -112.196         0.992267          158.02         0.992266          158.02         0.123212        -110.942
61                      0.124834         -112.23         0.992244         157.986         0.992243         157.986         0.123391         -110.98
61.01                   0.125018        -112.264         0.992221         157.952          0.99222         157.952         0.123571        -111.017
61.02                   0.125202        -112.297         0.992198         157.918         0.992197         157.918         0.123751        -111.055
61.03                   0.125386        -112.331         0.992174         157.884         0.992173         157.884         0.123931        -111.093
61.04                    0.12557        -112.365         0.992151          157.85          0.99215          157.85         0.124112         -111.13
61.05                   0.125755        -112.399         0.992128         157.816         0.992127         157.816         0.124293        -111.168
61.06                   0.125939        -112.433         0.992104         157.782         0.992103         157.782         0.124474        -111.206
61.07                   0.126123        -112.468         0.992081         157.748          0.99208         157.748         0.124656        -111.244
61.08                   0.126308        -112.502         0.992057         157.714         0.992056         157.714         0.124838        -111.282
61.09                   0.126492        -112.536         0.992033          157.68         0.992033          157.68          0.12502        -111.321
61.1                    0.126677         -112.57          0.99201         157.646         0.992009         157.646         0.125203        -111.359
61.11                   0.126861        -112.605         0.991986         157.612         0.991985         157.612         0.125386        -111.397
61.12                   0.127046        -112.639         0.991962         157.578         0.991961         157.578          0.12557        -111.436
61.13                    0.12723        -112.674         0.991938         157.544         0.991938         157.544         0.125753        -111.474
61.14                   0.127415        -112.708         0.991915          157.51         0.991914          157.51         0.125938        -111.513
61.15                   0.127599        -112.743         0.991891         157.476          0.99189         157.476         0.126122        -111.552
61.16                   0.127784        -112.778         0.991867         157.442         0.991866         157.442         0.126307         -111.59
61.17                   0.127969        -112.812         0.991843         157.408         0.991842         157.408         0.126493        -111.629
61.18                   0.128153        -112.847         0.991819         157.374         0.991818         157.374         0.126678        -111.668
61.19                   0.128338        -112.882         0.991794          157.34         0.991794          157.34         0.126865        -111.707
61.2                    0.128523        -112.917          0.99177         157.306          0.99177         157.306         0.127051        -111.746
61.21                   0.128708        -112.952         0.991746         157.272         0.991745         157.272         0.127238        -111.785
61.22                   0.128893        -112.987         0.991722         157.238         0.991721         157.238         0.127425        -111.824
61.23                   0.129078        -113.022         0.991697         157.204         0.991697         157.204         0.127613        -111.864
61.24                   0.129263        -113.057         0.991673          157.17         0.991672          157.17         0.127801        -111.903
61.25                   0.129448        -113.092         0.991649         157.136         0.991648         157.136          0.12799        -111.942
61.26                   0.129633        -113.128         0.991624         157.102         0.991623         157.102         0.128179        -111.981
61.27                   0.129818        -113.163           0.9916         157.068         0.991599         157.068         0.128368        -112.021
61.28                   0.130003        -113.198         0.991575         157.034         0.991574         157.034         0.128558         -112.06
61.29                   0.130188        -113.234          0.99155             157          0.99155             157         0.128748          -112.1
61.3                    0.130373        -113.269         0.991526         156.966         0.991525         156.966         0.128938        -112.139
61.31                   0.130558        -113.305         0.991501         156.932           0.9915         156.932         0.129129        -112.179
61.32                   0.130743         -113.34         0.991476         156.898         0.991475         156.898          0.12932        -112.218
61.33                   0.130929        -113.376         0.991451         156.864         0.991451         156.864         0.129512        -112.258
61.34                   0.131114        -113.412         0.991426          156.83         0.991426          156.83         0.129704        -112.298
61.35                   0.131299        -113.447         0.991401         156.796         0.991401         156.796         0.129896        -112.337
61.36                   0.131485        -113.483         0.991376         156.762         0.991376         156.762         0.130089        -112.377
61.37                    0.13167        -113.519         0.991351         156.728         0.991351         156.728         0.130282        -112.417
61.38                   0.131856        -113.555         0.991326         156.694         0.991326         156.694         0.130476        -112.456
61.39                   0.132041        -113.591         0.991301         156.661           0.9913         156.661          0.13067        -112.496
61.4                    0.132227        -113.627         0.991276         156.627         0.991275         156.627         0.130865        -112.536
61.41                   0.132412        -113.663         0.991251         156.593          0.99125         156.593          0.13106        -112.576
61.42                   0.132598        -113.699         0.991225         156.559         0.991225         156.559         0.131255        -112.615
61.43                   0.132783        -113.736           0.9912         156.525         0.991199         156.525         0.131451        -112.655
61.44                   0.132969        -113.772         0.991174         156.491         0.991174         156.491         0.131647        -112.695
61.45                   0.133155        -113.808         0.991149         156.457         0.991148         156.457         0.131843        -112.735
61.46                    0.13334        -113.844         0.991123         156.423         0.991123         156.423          0.13204        -112.775
61.47                   0.133526        -113.881         0.991098         156.389         0.991097         156.389         0.132237        -112.814
61.48                   0.133712        -113.917         0.991072         156.355         0.991072         156.355         0.132435        -112.854
61.49                   0.133898        -113.954         0.991047         156.321         0.991046         156.321         0.132633        -112.894
61.5                    0.134084        -113.991         0.991021         156.287          0.99102         156.287         0.132832        -112.934
61.51                    0.13427        -114.027         0.990995         156.253         0.990994         156.253         0.133031        -112.973
61.52                   0.134455        -114.064         0.990969          156.22         0.990969          156.22          0.13323        -113.013
61.53                   0.134641        -114.101         0.990943         156.186         0.990943         156.186          0.13343        -113.053
61.54                   0.134827        -114.138         0.990917         156.152         0.990917         156.152          0.13363        -113.092
61.55                   0.135014        -114.174         0.990891         156.118         0.990891         156.118          0.13383        -113.132
61.56                     0.1352        -114.211         0.990865         156.084         0.990865         156.084         0.134031        -113.172
61.57                   0.135386        -114.248         0.990839          156.05         0.990839          156.05         0.134232        -113.211
61.58                   0.135572        -114.285         0.990813         156.016         0.990813         156.016         0.134434        -113.251
61.59                   0.135758        -114.323         0.990787         155.982         0.990786         155.982         0.134636         -113.29
61.6                    0.135944         -114.36         0.990761         155.948          0.99076         155.948         0.134838         -113.33
61.61                   0.136131        -114.397         0.990734         155.915         0.990734         155.915         0.135041        -113.369
61.62                   0.136317        -114.434         0.990708         155.881         0.990708         155.881         0.135245        -113.409
61.63                   0.136503        -114.471         0.990682         155.847         0.990681         155.847         0.135448        -113.448
61.64                    0.13669        -114.509         0.990655         155.813         0.990655         155.813         0.135652        -113.488
61.65                   0.136876        -114.546         0.990629         155.779         0.990628         155.779         0.135856        -113.527
61.66                   0.137063        -114.584         0.990602         155.745         0.990602         155.745         0.136061        -113.566
61.67                   0.137249        -114.621         0.990575         155.711         0.990575         155.711         0.136266        -113.605
61.68                   0.137436        -114.659         0.990549         155.677         0.990548         155.677         0.136472        -113.645
61.69                   0.137622        -114.697         0.990522         155.644         0.990522         155.644         0.136678        -113.684
61.7                    0.137809        -114.734         0.990495          155.61         0.990495          155.61         0.136884        -113.723
61.71                   0.137996        -114.772         0.990469         155.576         0.990468         155.576         0.137091        -113.762
61.72                   0.138182         -114.81         0.990442         155.542         0.990441         155.542         0.137297        -113.801
61.73                   0.138369        -114.848         0.990415         155.508         0.990414         155.508         0.137505         -113.84
61.74                   0.138556        -114.886         0.990388         155.474         0.990387         155.474         0.137712        -113.878
61.75                   0.138743        -114.924         0.990361          155.44          0.99036          155.44         0.137921        -113.917
61.76                   0.138929        -114.962         0.990334         155.407         0.990333         155.407         0.138129        -113.956
61.77                   0.139116            -115         0.990307         155.373         0.990306         155.373         0.138338        -113.994
61.78                   0.139303        -115.038         0.990279         155.339         0.990279         155.339         0.138547        -114.033
61.79                    0.13949        -115.076         0.990252         155.305         0.990252         155.305         0.138756        -114.072
61.8                    0.139677        -115.114         0.990225         155.271         0.990225         155.271         0.138966         -114.11
61.81                   0.139864        -115.153         0.990198         155.237         0.990197         155.237         0.139176        -114.148
61.82                   0.140052        -115.191          0.99017         155.204          0.99017         155.204         0.139386        -114.187
61.83                   0.140239        -115.229         0.990143          155.17         0.990142          155.17         0.139597        -114.225
61.84                   0.140426        -115.268         0.990115         155.136         0.990115         155.136         0.139808        -114.263
61.85                   0.140613        -115.306         0.990088         155.102         0.990087         155.102          0.14002        -114.301
61.86                   0.140801        -115.345          0.99006         155.068          0.99006         155.068         0.140231        -114.339
61.87                   0.140988        -115.384         0.990033         155.035         0.990032         155.035         0.140444        -114.377
61.88                   0.141175        -115.422         0.990005         155.001         0.990005         155.001         0.140656        -114.415
61.89                   0.141363        -115.461         0.989977         154.967         0.989977         154.967         0.140869        -114.452
61.9                     0.14155          -115.5         0.989949         154.933         0.989949         154.933         0.141082         -114.49
61.91                   0.141738        -115.539         0.989921         154.899         0.989921         154.899         0.141295        -114.527
61.92                   0.141925        -115.577         0.989894         154.866         0.989893         154.866         0.141508        -114.565
61.93                   0.142113        -115.616         0.989866         154.832         0.989865         154.832         0.141722        -114.602
61.94                   0.142301        -115.655         0.989838         154.798         0.989837         154.798         0.141936        -114.639
61.95                   0.142488        -115.694          0.98981         154.764         0.989809         154.764         0.142151        -114.677
61.96                   0.142676        -115.734         0.989781          154.73         0.989781          154.73         0.142366        -114.714
61.97                   0.142864        -115.773         0.989753         154.697         0.989753         154.697         0.142581        -114.751