! TOUCHSTONE file generated by CST MICROWAVE STUDIO
! Date and time: Wed Feb 21 09:08:35 2024
! Project name: material_prueba.cst
! Parameters = {Y=0.5}
! Header version: 2018
! Port assignment regex: !\s*Touchstone port\s*([0-9]+)\s*=\s*(CST MWS port|CST DS port)\s*([0-9]+|Zmin|Zmax)\s*\(\"(.*)\"\)(\s*mode\s*([0-9]+))?.*
! Touchstone port assignment:
! Touchstone port 1 = CST MWS port 1 ("")
! Touchstone port 2 = CST MWS port 2 ("")
# GHz S MA R 376.7
60                      0.108466        -116.828           0.9941         161.486           0.9941         161.486         0.108466        -100.199
60.01                   0.108611        -116.856         0.994078         161.453         0.994078         161.453         0.108581        -100.242
60.02                   0.108755        -116.885         0.994056         161.419         0.994056         161.419         0.108698        -100.285
60.03                     0.1089        -116.914         0.994034         161.385         0.994034         161.385         0.108814        -100.328
60.04                   0.109045        -116.943         0.994012         161.352         0.994012         161.352         0.108932         -100.37
60.05                    0.10919        -116.972         0.993991         161.318         0.993991         161.318          0.10905        -100.413
60.06                   0.109336        -117.001         0.993969         161.284         0.993969         161.284         0.109169        -100.455
60.07                   0.109481         -117.03         0.993947          161.25         0.993947          161.25         0.109288        -100.497
60.08                   0.109627        -117.059         0.993925         161.217         0.993925         161.217         0.109409        -100.538
60.09                   0.109773        -117.088         0.993903         161.183         0.993903         161.183         0.109529         -100.58
60.1                    0.109919        -117.118         0.993881         161.149         0.993881         161.149         0.109651        -100.621
60.11                   0.110065        -117.147         0.993859         161.115         0.993859         161.115         0.109773        -100.662
60.12                   0.110211        -117.176         0.993837         161.082         0.993837         161.082         0.109896        -100.703
60.13                   0.110358        -117.206         0.993815         161.048         0.993815         161.048         0.110019        -100.744
60.14                   0.110505        -117.236         0.993793         161.014         0.993793         161.014         0.110144        -100.784
60.15                   0.110652        -117.265         0.993771         160.981         0.993771         160.981         0.110268        -100.825
60.16                   0.110799        -117.295          0.99375         160.947          0.99375         160.947         0.110394        -100.865
60.17                   0.110946        -117.325         0.993728         160.913         0.993728         160.913          0.11052        -100.905
60.18                   0.111094        -117.355         0.993706         160.879         0.993706         160.879         0.110647        -100.945
60.19                   0.111242        -117.385         0.993684         160.846         0.993684         160.846         0.110774        -100.984
60.2                    0.111389        -117.415         0.993662         160.812         0.993662         160.812         0.110902        -101.024
60.21                   0.111538        -117.445          0.99364         160.778          0.99364         160.778         0.111031        -101.063
60.22                   0.111686        -117.476         0.993618         160.745         0.993618         160.745          0.11116        -101.102
60.23                   0.111834        -117.506         0.993596         160.711         0.993596         160.711          0.11129        -101.141
60.24                   0.111983        -117.536         0.993574         160.677         0.993574         160.677          0.11142         -101.18
60.25                   0.112132        -117.567         0.993553         160.643         0.993553         160.643         0.111552        -101.219
60.26                   0.112281        -117.597         0.993531          160.61         0.993531          160.61         0.111683        -101.257
60.27                    0.11243        -117.628         0.993509         160.576         0.993509         160.576         0.111816        -101.295
60.28                    0.11258        -117.659         0.993487         160.542         0.993487         160.542         0.111949        -101.334
60.29                   0.112729         -117.69         0.993465         160.508         0.993465         160.508         0.112082        -101.372
60.3                    0.112879         -117.72         0.993443         160.475         0.993443         160.475         0.112217        -101.409
60.31                   0.113029        -117.751         0.993421         160.441         0.993421         160.441         0.112351        -101.447
60.32                   0.113179        -117.782           0.9934         160.407           0.9934         160.407         0.112487        -101.485
60.33                    0.11333        -117.813         0.993378         160.374         0.993378         160.374         0.112623        -101.522
60.34                    0.11348        -117.844         0.993356          160.34         0.993356          160.34         0.112759        -101.559
60.35                   0.113631        -117.876         0.993334         160.306         0.993334         160.306         0.112897        -101.596
60.36                   0.113782        -117.907         0.993312         160.272         0.993312         160.272         0.113035        -101.633
60.37                   0.113933        -117.938         0.993291         160.239         0.993291         160.239         0.113173         -101.67
60.38                   0.114085         -117.97         0.993269         160.205         0.993269         160.205         0.113312        -101.707
60.39                   0.114236        -118.001         0.993247         160.171         0.993247         160.171         0.113452        -101.743
60.4                    0.114388        -118.033         0.993225         160.138         0.993225         160.138         0.113592         -101.78
60.41                    0.11454        -118.064         0.993203         160.104         0.993203         160.104         0.113732        -101.816
60.42                   0.114692        -118.096         0.993182          160.07         0.993182          160.07         0.113874        -101.852
60.43                   0.114845        -118.128          0.99316         160.036          0.99316         160.036         0.114016        -101.888
60.44                   0.114997         -118.16         0.993138         160.003         0.993138         160.003         0.114158        -101.924
60.45                    0.11515        -118.192         0.993116         159.969         0.993116         159.969         0.114301         -101.96
60.46                   0.115303        -118.224         0.993094         159.935         0.993094         159.935         0.114445        -101.996
60.47                   0.115456        -118.256         0.993073         159.902         0.993073         159.902         0.114589        -102.031
60.48                    0.11561        -118.288         0.993051         159.868         0.993051         159.868         0.114734        -102.067
60.49                   0.115764         -118.32         0.993029         159.834         0.993029         159.834         0.114879        -102.102
60.5                    0.115917        -118.352         0.993007           159.8         0.993007           159.8         0.115025        -102.137
60.51                   0.116072        -118.384         0.992986         159.767         0.992986         159.767         0.115171        -102.172
60.52                   0.116226        -118.417         0.992964         159.733         0.992964         159.733         0.115318        -102.207
60.53                    0.11638        -118.449         0.992942         159.699         0.992942         159.699         0.115466        -102.242
60.54                   0.116535        -118.482         0.992921         159.665         0.992921         159.665         0.115614        -102.277
60.55                    0.11669        -118.514         0.992899         159.632         0.992899         159.632         0.115763        -102.311
60.56                   0.116845        -118.547         0.992877         159.598         0.992877         159.598         0.115912        -102.346
60.57                   0.117001        -118.579         0.992855         159.564         0.992855         159.564         0.116061         -102.38
60.58                   0.117156        -118.612         0.992834         159.531         0.992834         159.531         0.116212        -102.415
60.59                   0.117312        -118.645         0.992812         159.497         0.992812         159.497         0.116362        -102.449
60.6                    0.117468        -118.678          0.99279         159.463          0.99279         159.463         0.116514        -102.483
60.61                   0.117624        -118.711         0.992769         159.429         0.992769         159.429         0.116666        -102.517
60.62                   0.117781        -118.744         0.992747         159.396         0.992747         159.396         0.116818        -102.551
60.63                   0.117937        -118.777         0.992725         159.362         0.992725         159.362         0.116971        -102.585
60.64                   0.118094         -118.81         0.992704         159.328         0.992704         159.328         0.117124        -102.619
60.65                   0.118251        -118.843         0.992682         159.295         0.992682         159.295         0.117278        -102.652
60.66                   0.118409        -118.876         0.992661         159.261         0.992661         159.261         0.117433        -102.686
60.67                   0.118566        -118.909         0.992639         159.227         0.992639         159.227         0.117587        -102.719
60.68                   0.118724        -118.943         0.992617         159.193         0.992617         159.193         0.117743        -102.753
60.69                   0.118882        -118.976         0.992596          159.16         0.992596          159.16         0.117899        -102.786
60.7                    0.119041        -119.009         0.992574         159.126         0.992574         159.126         0.118055        -102.819
60.71                   0.119199        -119.043         0.992553         159.092         0.992553         159.092         0.118212        -102.853
60.72                   0.119358        -119.076         0.992531         159.059         0.992531         159.059          0.11837        -102.886
60.73                   0.119517         -119.11          0.99251         159.025          0.99251         159.025         0.118528        -102.919
60.74                   0.119676        -119.144         0.992488         158.991         0.992488         158.991         0.118686        -102.952
60.75                   0.119835        -119.177         0.992466         158.957         0.992466         158.957         0.118845        -102.985
60.76                   0.119995        -119.211         0.992445         158.924         0.992445         158.924         0.119005        -103.017
60.77                   0.120155        -119.245         0.992423          158.89         0.992423          158.89         0.119165         -103.05
60.78                   0.120315        -119.279         0.992402         158.856         0.992402         158.856         0.119325        -103.083
60.79                   0.120475        -119.313          0.99238         158.823          0.99238         158.823         0.119486        -103.115
60.8                    0.120636        -119.347         0.992359         158.789         0.992359         158.789         0.119648        -103.148
60.81                   0.120797        -119.381         0.992338         158.755         0.992338         158.755         0.119809         -103.18
60.82                   0.120958        -119.415         0.992316         158.721         0.992316         158.721         0.119972        -103.213
60.83                   0.121119        -119.449         0.992295         158.688         0.992295         158.688         0.120135        -103.245
60.84                    0.12128        -119.483         0.992273         158.654         0.992273         158.654         0.120298        -103.277
60.85                   0.121442        -119.517         0.992252          158.62         0.992252          158.62         0.120462        -103.309
60.86                   0.121604        -119.551          0.99223         158.587          0.99223         158.587         0.120626        -103.341
60.87                   0.121766        -119.586         0.992209         158.553         0.992209         158.553         0.120791        -103.374
60.88                   0.121929         -119.62         0.992188         158.519         0.992188         158.519         0.120956        -103.406
60.89                   0.122092        -119.654         0.992166         158.485         0.992166         158.485         0.121122        -103.438
60.9                    0.122254        -119.689         0.992145         158.452         0.992145         158.452         0.121288        -103.469
60.91                   0.122418        -119.723         0.992124         158.418         0.992124         158.418         0.121454        -103.501
60.92                   0.122581        -119.758         0.992102         158.384         0.992102         158.384         0.121621        -103.533
60.93                   0.122745        -119.792         0.992081         158.351         0.992081         158.351         0.121789        -103.565
60.94                   0.122909        -119.827          0.99206         158.317          0.99206         158.317         0.121957        -103.597
60.95                   0.123073        -119.862         0.992038         158.283         0.992038         158.283         0.122125        -103.628
60.96                   0.123237        -119.896         0.992017          158.25         0.992017          158.25         0.122294         -103.66
60.97                   0.123402        -119.931         0.991996         158.216         0.991996         158.216         0.122463        -103.691
60.98                   0.123567        -119.966         0.991975         158.182         0.991975         158.182         0.122633        -103.723
60.99                   0.123732        -120.001         0.991953         158.148         0.991953         158.148         0.122803        -103.754
61                      0.123897        -120.036         0.991932         158.115         0.991932         158.115         0.122974        -103.786
61.01                   0.124063        -120.071         0.991911         158.081         0.991911         158.081         0.123145        -103.817
61.02                   0.124229        -120.105          0.99189         158.047          0.99189         158.047         0.123316        -103.849
61.03                   0.124395         -120.14         0.991869         158.014         0.991869         158.014         0.123488         -103.88
61.04                   0.124562        -120.175         0.991848          157.98         0.991848          157.98          0.12366        -103.911
61.05                   0.124728        -120.211         0.991826         157.946         0.991826         157.946         0.123833        -103.943
61.06                   0.124895        -120.246         0.991805         157.913         0.991805         157.913         0.124006        -103.974
61.07                   0.125062        -120.281         0.991784         157.879         0.991784         157.879          0.12418        -104.005
61.08                    0.12523        -120.316         0.991763         157.845         0.991763         157.845         0.124353        -104.036
61.09                   0.125397        -120.351         0.991742         157.811         0.991742         157.811         0.124528        -104.067
61.1                    0.125565        -120.386         0.991721         157.778         0.991721         157.778         0.124703        -104.099
61.11                   0.125734        -120.422           0.9917         157.744           0.9917         157.744         0.124878         -104.13
61.12                   0.125902        -120.457         0.991679          157.71         0.991679          157.71         0.125053        -104.161
61.13                   0.126071        -120.492         0.991658         157.677         0.991658         157.677         0.125229        -104.192
61.14                    0.12624        -120.527         0.991637         157.643         0.991637         157.643         0.125406        -104.223
61.15                   0.126409        -120.563         0.991616         157.609         0.991616         157.609         0.125583        -104.254
61.16                   0.126578        -120.598         0.991595         157.576         0.991595         157.576          0.12576        -104.285
61.17                   0.126748        -120.634         0.991574         157.542         0.991574         157.542         0.125937        -104.316
61.18                   0.126918        -120.669         0.991553         157.508         0.991553         157.508         0.126115        -104.347
61.19                   0.127088        -120.705         0.991533         157.474         0.991533         157.474         0.126294        -104.377
61.2                    0.127259         -120.74         0.991512         157.441         0.991512         157.441         0.126473        -104.408
61.21                    0.12743        -120.776         0.991491         157.407         0.991491         157.407         0.126652        -104.439
61.22                   0.127601        -120.811          0.99147         157.373          0.99147         157.373         0.126831         -104.47
61.23                   0.127772        -120.847         0.991449          157.34         0.991449          157.34         0.127011        -104.501
61.24                   0.127943        -120.883         0.991429         157.306         0.991429         157.306         0.127191        -104.532
61.25                   0.128115        -120.918         0.991408         157.272         0.991408         157.272         0.127372        -104.563
61.26                   0.128287        -120.954         0.991387         157.239         0.991387         157.239         0.127553        -104.593
61.27                    0.12846         -120.99         0.991366         157.205         0.991366         157.205         0.127735        -104.624
61.28                   0.128632        -121.025         0.991346         157.171         0.991346         157.171         0.127916        -104.655
61.29                   0.128805        -121.061         0.991325         157.138         0.991325         157.138         0.128099        -104.686
61.3                    0.128978        -121.097         0.991305         157.104         0.991305         157.104         0.128281        -104.716
61.31                   0.129152        -121.133         0.991284          157.07         0.991284          157.07         0.128464        -104.747
61.32                   0.129325        -121.168         0.991263         157.037         0.991263         157.037         0.128647        -104.778
61.33                   0.129499        -121.204         0.991243         157.003         0.991243         157.003         0.128831        -104.809
61.34                   0.129674         -121.24         0.991222         156.969         0.991222         156.969         0.129015        -104.839
61.35                   0.129848        -121.276         0.991202         156.935         0.991202         156.935         0.129199         -104.87
61.36                   0.130023        -121.312         0.991181         156.902         0.991181         156.902         0.129384        -104.901
61.37                   0.130198        -121.348         0.991161         156.868         0.991161         156.868         0.129569        -104.932
61.38                   0.130373        -121.384         0.991141         156.834         0.991141         156.834         0.129754        -104.962
61.39                   0.130549         -121.42          0.99112         156.801          0.99112         156.801          0.12994        -104.993
61.4                    0.130724        -121.456           0.9911         156.767           0.9911         156.767         0.130126        -105.024
61.41                   0.130901        -121.492         0.991079         156.733         0.991079         156.733         0.130312        -105.054
61.42                   0.131077        -121.527         0.991059           156.7         0.991059           156.7         0.130499        -105.085
61.43                   0.131253        -121.563         0.991039         156.666         0.991039         156.666         0.130686        -105.116
61.44                    0.13143        -121.599         0.991019         156.632         0.991019         156.632         0.130873        -105.147
61.45                   0.131608        -121.635         0.990998         156.599         0.990998         156.599         0.131061        -105.177
61.46                   0.131785        -121.671         0.990978         156.565         0.990978         156.565         0.131249        -105.208
61.47                   0.131963        -121.708         0.990958         156.531         0.990958         156.531         0.131437        -105.239
61.48                   0.132141        -121.744         0.990938         156.498         0.990938         156.498         0.131626         -105.27
61.49                   0.132319         -121.78         0.990918         156.464         0.990918         156.464         0.131815          -105.3
61.5                    0.132497        -121.816         0.990898          156.43         0.990898          156.43         0.132004        -105.331
61.51                   0.132676        -121.852         0.990878         156.397         0.990878         156.397         0.132194        -105.362
61.52                   0.132855        -121.888         0.990858         156.363         0.990858         156.363         0.132383        -105.393
61.53                   0.133035        -121.924         0.990838         156.329         0.990838         156.329         0.132574        -105.424
61.54                   0.133214         -121.96         0.990818         156.296         0.990818         156.296         0.132764        -105.454
61.55                   0.133394        -121.996         0.990798         156.262         0.990798         156.262         0.132955        -105.485
61.56                   0.133574        -122.032         0.990778         156.228         0.990778         156.228         0.133146        -105.516
61.57                   0.133755        -122.068         0.990758         156.195         0.990758         156.195         0.133338        -105.547
61.58                   0.133935        -122.104         0.990739         156.161         0.990739         156.161         0.133529        -105.578
61.59                   0.134116         -122.14         0.990719         156.127         0.990719         156.127         0.133721        -105.608
61.6                    0.134298        -122.176         0.990699         156.094         0.990699         156.094         0.133914        -105.639
61.61                   0.134479        -122.213         0.990679          156.06         0.990679          156.06         0.134106         -105.67
61.62                   0.134661        -122.249          0.99066         156.026          0.99066         156.026         0.134299        -105.701
61.63                   0.134843        -122.285          0.99064         155.993          0.99064         155.993         0.134492        -105.732
61.64                   0.135025        -122.321         0.990621         155.959         0.990621         155.959         0.134686        -105.763
61.65                   0.135208        -122.357         0.990601         155.925         0.990601         155.925          0.13488        -105.794
61.66                   0.135391        -122.393         0.990582         155.892         0.990582         155.892         0.135074        -105.825
61.67                   0.135574        -122.429         0.990562         155.858         0.990562         155.858         0.135268        -105.856
61.68                   0.135757        -122.465         0.990543         155.824         0.990543         155.824         0.135463        -105.887
61.69                   0.135941        -122.501         0.990523         155.791         0.990523         155.791         0.135657        -105.918
61.7                    0.136125        -122.537         0.990504         155.757         0.990504         155.757         0.135852        -105.949
61.71                   0.136309        -122.573         0.990485         155.723         0.990485         155.723         0.136048         -105.98
61.72                   0.136494        -122.609         0.990466          155.69         0.990466          155.69         0.136244        -106.011
61.73                   0.136678        -122.645         0.990446         155.656         0.990446         155.656         0.136439        -106.042
61.74                   0.136863        -122.681         0.990427         155.622         0.990427         155.622         0.136636        -106.073
61.75                   0.137049        -122.717         0.990408         155.589         0.990408         155.589         0.136832        -106.105
61.76                   0.137234        -122.754         0.990389         155.555         0.990389         155.555         0.137029        -106.136
61.77                    0.13742         -122.79          0.99037         155.521          0.99037         155.521         0.137226        -106.167
61.78                   0.137606        -122.826         0.990351         155.488         0.990351         155.488         0.137423        -106.198
61.79                   0.137793        -122.861         0.990332         155.454         0.990332         155.454          0.13762        -106.229
61.8                    0.137979        -122.897         0.990313          155.42         0.990313          155.42         0.137818        -106.261
61.81                   0.138166        -122.933         0.990294         155.387         0.990294         155.387         0.138016        -106.292
61.82                   0.138354        -122.969         0.990276         155.353         0.990276         155.353         0.138214        -106.323
61.83                   0.138541        -123.005         0.990257          155.32         0.990257          155.32         0.138413        -106.355
61.84                   0.138729        -123.041         0.990238         155.286         0.990238         155.286         0.138611        -106.386
61.85                   0.138917        -123.077          0.99022         155.252          0.99022         155.252          0.13881        -106.417
61.86                   0.139105        -123.113         0.990201         155.219         0.990201         155.219         0.139009        -106.449
61.87                   0.139294        -123.149         0.990183         155.185         0.990183         155.185         0.139209         -106.48
61.88                   0.139482        -123.185         0.990164         155.151         0.990164         155.151         0.139408        -106.512
61.89                   0.139671        -123.221         0.990146         155.118         0.990146         155.118         0.139608        -106.543
61.9                    0.139861        -123.256         0.990127         155.084         0.990127         155.084         0.139808        -106.575
61.91                    0.14005        -123.292         0.990109          155.05         0.990109          155.05         0.140008        -106.607
61.92                    0.14024        -123.328         0.990091         155.017         0.990091         155.017         0.140209        -106.638
61.93                    0.14043        -123.364         0.990073         154.983         0.990073         154.983         0.140409         -106.67
61.94                   0.140621        -123.399         0.990055          154.95         0.990055          154.95          0.14061        -106.701
61.95                   0.140811        -123.435         0.990036         154.916         0.990036         154.916         0.140811        -106.733
61.96                   0.141002        -123.471         0.990018         154.882         0.990018         154.882         0.141013        -106.765
61.97                   0.141193        -123.506         0.990001         154.849         0.990001         154.849         0.141214        -106.797