! TOUCHSTONE file generated by CST MICROWAVE STUDIO
! Date and time: Fri Feb 23 17:16:09 2024
! Project name: material_angular.cst
! Parameters = {Y=2}
! Header version: 2018
! Port assignment regex: !\s*Touchstone port\s*([0-9]+)\s*=\s*(CST MWS port|CST DS port)\s*([0-9]+|Zmin|Zmax)\s*\(\"(.*)\"\)(\s*mode\s*([0-9]+))?.*
! Touchstone port assignment:
! Touchstone port 1 = CST MWS port 1 ("")
! Touchstone port 2 = CST MWS port 2 ("")
# GHz S MA R 376.7
60                     0.0848626        -39.4191         0.996393         161.296         0.996393         161.296        0.0848626        -177.989
60.01                  0.0851244        -39.3239          0.99637         161.245          0.99637         161.245        0.0851244        -178.187
60.02                  0.0853955        -39.2211         0.996347         161.193         0.996347         161.193        0.0853955        -178.393
60.03                  0.0856766          -39.11         0.996323          161.14         0.996323          161.14        0.0856766        -178.611
60.04                   0.085969        -38.9897         0.996298         161.085         0.996298         161.085         0.085969         -178.84
60.05                  0.0862739        -38.8594         0.996272          161.03         0.996272          161.03        0.0862739        -179.081
60.06                  0.0865929         -38.718         0.996244         160.972         0.996244         160.972        0.0865929        -179.338
60.07                   0.086928        -38.5642         0.996215         160.913         0.996215         160.913         0.086928         -179.61
60.08                  0.0872815        -38.3967         0.996184         160.852         0.996184         160.852        0.0872815          -179.9
60.09                  0.0876563         -38.214         0.996151         160.788         0.996151         160.788        0.0876564         179.791
60.1                   0.0880562        -38.0142         0.996116         160.722         0.996116         160.722        0.0880562         179.458
60.11                  0.0884858        -37.7954         0.996078         160.653         0.996078         160.653        0.0884858         179.101
60.12                  0.0889513        -37.5556         0.996036         160.579         0.996036         160.579        0.0889513         178.714
60.13                  0.0894609        -37.2926         0.995991         160.502         0.995991         160.502        0.0894609         178.296
60.14                  0.0900263        -37.0043          0.99594         160.418          0.99594         160.418        0.0900263         177.841
60.15                  0.0906646        -36.6896         0.995882         160.328         0.995882         160.328        0.0906646         177.345
60.16                  0.0914032        -36.3497         0.995814         160.228         0.995814         160.228        0.0914032         176.806
60.17                  0.0922912         -35.993         0.995732         160.115         0.995732         160.115        0.0922913         176.224
60.18                  0.0934335        -35.6492         0.995626         159.982         0.995626         159.982        0.0934335         175.613
60.19                  0.0951332        -35.4324         0.995465         159.806         0.995465         159.806        0.0951332         175.044
60.2                   0.0990436        -36.0323         0.995083         159.474         0.995083         159.474        0.0990436         174.979
60.21                  0.0683882         -13.049         0.997659         161.769         0.997659         161.769        0.0683882         156.586
60.22                  0.0923031        -29.6524         0.995731         159.803         0.995731         159.803        0.0923031         169.258
60.23                  0.0958419          -29.37         0.995397         159.471         0.995397         159.471        0.0958419         168.312
60.24                  0.0987642        -28.1992         0.995111         159.174         0.995111         159.174        0.0987643         166.548
60.25                   0.102169        -26.4842         0.994767         158.832         0.994767         158.832         0.102169         164.149
60.26                   0.106764        -24.1729         0.994284         158.393         0.994284         158.393         0.106764         160.959
60.27                   0.113683         -21.074         0.993517         157.778         0.993517         157.778         0.113683          156.63
60.28                   0.125457        -16.8698         0.992099         156.819         0.992099         156.819         0.125457         150.509
60.29                   0.149342        -11.1741         0.988786         155.063         0.988786         155.063         0.149342           141.3
60.3                    0.215926        -4.44248          0.97641          150.66          0.97641          150.66         0.215926         125.763
60.31                   0.663077        -17.6392         0.748551         120.861         0.748551         120.861         0.663077         79.3622
60.32                   0.277248        -118.826         0.960799         177.531         0.960799         177.531         0.277248        -66.1119
60.33                   0.130146        -105.772         0.991495         167.865         0.991495         167.865         0.130146        -98.4977
60.34                  0.0991651        -90.8533         0.995071          165.15         0.995071          165.15        0.0991652        -118.846
60.35                  0.0894873         -80.205         0.995988         163.862         0.995988         163.862        0.0894873        -132.072
60.36                  0.0860127        -72.9945         0.996294         163.099         0.996294         163.099        0.0860128        -140.807
60.37                  0.0847618         -67.999         0.996401         162.588         0.996401         162.588        0.0847618        -146.824
60.38                  0.0844193        -64.4056          0.99643         162.217          0.99643         162.217        0.0844193         -151.16
60.39                  0.0844812        -61.7257         0.996425         161.932         0.996425         161.932        0.0844812        -154.411
60.4                   0.0847324        -59.6638         0.996404         161.702         0.996404         161.702        0.0847324        -156.931
60.41                  0.0850735        -58.0357         0.996375         161.512         0.996375         161.512        0.0850735        -158.941
60.42                  0.0854564        -56.7219         0.996342         161.349         0.996342         161.349        0.0854565         -160.58
60.43                  0.0858568        -55.6423         0.996307         161.207         0.996307         161.207        0.0858568        -161.943
60.44                  0.0862622        -54.7416         0.996272         161.081         0.996272         161.081        0.0862622        -163.096
60.45                  0.0866664        -53.9803         0.996237         160.967         0.996237         160.967        0.0866664        -164.085
60.46                  0.0870665        -53.3298         0.996202         160.863         0.996202         160.863        0.0870665        -164.943
60.47                  0.0874613        -52.7685         0.996168         160.767         0.996168         160.767        0.0874613        -165.697
60.48                  0.0878508        -52.2802         0.996134         160.677         0.996134         160.677        0.0878508        -166.365
60.49                  0.0882353        -51.8524           0.9961         160.593           0.9961         160.593        0.0882353        -166.962
60.5                   0.0886156        -51.4753         0.996066         160.513         0.996066         160.513        0.0886156        -167.499
60.51                  0.0889924         -51.141         0.996032         160.436         0.996032         160.436        0.0889924        -167.987
60.52                  0.0893669        -50.8433         0.995999         160.363         0.995999         160.363        0.0893669        -168.431
60.53                  0.0897399         -50.577         0.995965         160.292         0.995965         160.292        0.0897399        -168.839
60.54                  0.0901124        -50.3381         0.995932         160.223         0.995932         160.223        0.0901124        -169.216
60.55                  0.0904855        -50.1229         0.995898         160.156         0.995898         160.156        0.0904855        -169.565
60.56                  0.0908602        -49.9288         0.995864         160.091         0.995864         160.091        0.0908602         -169.89
60.57                  0.0912376        -49.7531         0.995829         160.026         0.995829         160.026        0.0912376        -170.194
60.58                  0.0916186         -49.594         0.995794         159.963         0.995794         159.963        0.0916186         -170.48
60.59                  0.0920044        -49.4496         0.995759         159.901         0.995759         159.901        0.0920044        -170.749
60.6                   0.0923962        -49.3185         0.995723         159.839         0.995723         159.839        0.0923962        -171.004
60.61                  0.0927951        -49.1994         0.995686         159.778         0.995686         159.778        0.0927951        -171.245
60.62                  0.0932024        -49.0913         0.995648         159.717         0.995648         159.717        0.0932024        -171.475
60.63                  0.0936195        -48.9931         0.995608         159.656         0.995608         159.656        0.0936195        -171.695
60.64                   0.094048        -48.9042         0.995568         159.595         0.995568         159.595         0.094048        -171.906
60.65                  0.0944894        -48.8238         0.995526         159.534         0.995526         159.534        0.0944894        -172.108
60.66                  0.0949457        -48.7513         0.995483         159.472         0.995483         159.472        0.0949457        -172.304
60.67                  0.0954188        -48.6863         0.995438         159.411         0.995438         159.411        0.0954188        -172.493
60.68                  0.0959111        -48.6282          0.99539         159.348          0.99539         159.348        0.0959111        -172.676
60.69                  0.0964252        -48.5769         0.995341         159.285         0.995341         159.285        0.0964252        -172.854
60.7                   0.0969642         -48.532         0.995288          159.22         0.995288          159.22        0.0969642        -173.028
60.71                  0.0975316        -48.4932         0.995233         159.154         0.995233         159.154        0.0975316        -173.198
60.72                  0.0981314        -48.4606         0.995174         159.087         0.995174         159.087        0.0981314        -173.366
60.73                  0.0987685         -48.434         0.995111         159.018         0.995111         159.018        0.0987685        -173.531
60.74                  0.0994486        -48.4135         0.995043         158.946         0.995043         158.946        0.0994486        -173.694
60.75                   0.100178        -48.3991          0.99497         158.872          0.99497         158.872         0.100178        -173.857
60.76                   0.100966        -48.3912          0.99489         158.795          0.99489         158.795         0.100966        -174.019
60.77                   0.101822        -48.3899         0.994803         158.714         0.994803         158.714         0.101822        -174.182
60.78                   0.102759        -48.3959         0.994707         158.629         0.994707         158.629         0.102759        -174.347
60.79                   0.103792        -48.4097           0.9946         158.538           0.9946         158.538         0.103792        -174.514
60.8                     0.10494        -48.4323         0.994479         158.441         0.994479         158.441          0.10494        -174.686
60.81                    0.10623         -48.465         0.994342         158.335         0.994342         158.335          0.10623        -174.864
60.82                   0.107695        -48.5094         0.994184          158.22         0.994184          158.22         0.107695         -175.05
60.83                   0.109379        -48.5679         0.994001         158.092         0.994001         158.092         0.109379        -175.247
60.84                   0.111343        -48.6437         0.993782         157.949         0.993782         157.949         0.111343        -175.459
60.85                   0.113674        -48.7415         0.993519         157.784         0.993519         157.784         0.113673        -175.691
60.86                   0.116495        -48.8681         0.993192         157.591         0.993192         157.591         0.116495         -175.95
60.87                   0.119995        -49.0339         0.992775         157.359         0.992775         157.359         0.119994        -176.249
60.88                   0.124472        -49.2556         0.992224          157.07         0.992224          157.07         0.124472        -176.604
60.89                   0.130428        -49.5615         0.991458         156.696         0.991458         156.696         0.130428        -177.046
60.9                    0.138779        -50.0034         0.990324         156.183         0.990324         156.183         0.138779         -177.63
60.91                   0.151395        -50.6881         0.988474         155.423         0.988474         155.423         0.151395        -178.466
60.92                   0.172754        -51.8742         0.984965         154.153         0.984965         154.153         0.172754         -179.82
60.93                   0.216922        -54.3851         0.976189         151.543         0.976189         151.543         0.216922         177.471
60.94                   0.360402        -62.8824         0.932797         142.916         0.932797         142.916         0.360402         168.715
60.95                   0.725218        -175.101         0.688519        -149.501         0.688519        -149.501         0.725218         56.0984
60.96                   0.101735         144.651         0.994812         169.821         0.994812         169.821         0.101735         14.9912
60.97                  0.0139173         142.339         0.999903         164.749         0.999903         164.749        0.0139173         7.15808
60.98                  0.0194218        -44.9587         0.999811         162.811         0.999811         162.811        0.0194218        -169.419
60.99                  0.0369279        -44.8825         0.999318         161.778         0.999318         161.778        0.0369279        -171.562
61                       0.04775        -45.2246         0.998859         161.127         0.998859         161.127          0.04775         -172.52
61.01                  0.0551217         -45.516          0.99848         160.675          0.99848         160.675        0.0551217        -173.134
61.02                  0.0604818        -45.7452         0.998169         160.338         0.998169         160.338        0.0604818        -173.579
61.03                  0.0645669        -45.9266         0.997913         160.074         0.997913         160.074        0.0645668        -173.925
61.04                   0.067793        -46.0731         0.997699          159.86         0.997699          159.86         0.067793        -174.208
61.05                  0.0704131        -46.1937         0.997518          159.68         0.997518          159.68        0.0704131        -174.447
61.06                  0.0725894        -46.2951         0.997362         159.525         0.997362         159.525        0.0725894        -174.654
61.07                  0.0744311        -46.3816         0.997226          159.39         0.997226          159.39        0.0744311        -174.838
61.08                  0.0760141        -46.4565         0.997107          159.27         0.997107          159.27        0.0760141        -175.004
61.09                   0.077393        -46.5224         0.997001         159.161         0.997001         159.161         0.077393        -175.155
61.1                   0.0786079         -46.581         0.996906         159.062         0.996906         159.062        0.0786079        -175.295
61.11                  0.0796892        -46.6338          0.99682          158.97          0.99682          158.97        0.0796892        -175.425
61.12                  0.0806599        -46.6816         0.996742         158.885         0.996742         158.885        0.0806599        -175.548
61.13                  0.0815382        -46.7255          0.99667         158.805          0.99667         158.805        0.0815382        -175.664
61.14                  0.0823383        -46.7661         0.996604          158.73         0.996604          158.73        0.0823383        -175.774
61.15                  0.0830717        -46.8039         0.996544         158.658         0.996544         158.658        0.0830717         -175.88
61.16                  0.0837477        -46.8394         0.996487          158.59         0.996487          158.59        0.0837477        -175.982
61.17                  0.0843739        -46.8728         0.996434         158.524         0.996434         158.524        0.0843739        -176.079
61.18                  0.0849565        -46.9046         0.996385         158.461         0.996385         158.461        0.0849565        -176.174
61.19                  0.0855007         -46.935         0.996338           158.4         0.996338           158.4        0.0855007        -176.266
61.2                   0.0860109        -46.9641         0.996294          158.34         0.996294          158.34        0.0860109        -176.355
61.21                  0.0864908        -46.9921         0.996253         158.283         0.996253         158.283        0.0864908        -176.442
61.22                  0.0869434        -47.0192         0.996213         158.227         0.996213         158.227        0.0869434        -176.528
61.23                  0.0873714        -47.0455         0.996176         158.172         0.996176         158.172        0.0873714        -176.611
61.24                  0.0877771        -47.0712          0.99614         158.118          0.99614         158.118        0.0877771        -176.693
61.25                  0.0881624        -47.0963         0.996106         158.065         0.996106         158.065        0.0881624        -176.773
61.26                  0.0885288        -47.1208         0.996074         158.013         0.996074         158.013        0.0885288        -176.852
61.27                  0.0888778        -47.1449         0.996043         157.962         0.996043         157.962        0.0888778         -176.93
61.28                  0.0892104        -47.1687         0.996013         157.912         0.996013         157.912        0.0892104        -177.007
61.29                  0.0895277        -47.1921         0.995984         157.862         0.995984         157.862        0.0895277        -177.083
61.3                   0.0898304        -47.2153         0.995957         157.813         0.995957         157.813        0.0898304        -177.158
61.31                   0.090119        -47.2383         0.995931         157.765         0.995931         157.765         0.090119        -177.233
61.32                  0.0903939        -47.2611         0.995906         157.716         0.995906         157.716        0.0903939        -177.307
61.33                  0.0906553        -47.2837         0.995882         157.668         0.995882         157.668        0.0906553         -177.38
61.34                  0.0909033        -47.3062          0.99586          157.62          0.99586          157.62        0.0909033        -177.453
61.35                  0.0911375        -47.3287         0.995838         157.573         0.995838         157.573        0.0911375        -177.526
61.36                  0.0913575        -47.3511         0.995818         157.525         0.995818         157.525        0.0913575        -177.599
61.37                  0.0915624        -47.3736         0.995799         157.477         0.995799         157.477        0.0915624        -177.672
61.38                  0.0917509         -47.396         0.995782         157.429         0.995782         157.429        0.0917509        -177.746
61.39                  0.0919211        -47.4186         0.995766         157.381         0.995766         157.381        0.0919211         -177.82
61.4                   0.0920705        -47.4412         0.995753         157.332         0.995753         157.332        0.0920705        -177.895
61.41                  0.0921952         -47.464         0.995741         157.282         0.995741         157.282        0.0921952        -177.972
61.42                  0.0922899        -47.4871         0.995732         157.231         0.995732         157.231        0.0922899         -178.05
61.43                  0.0923467        -47.5105         0.995727         157.179         0.995727         157.179        0.0923467        -178.132
61.44                  0.0923538        -47.5344         0.995726         157.124         0.995726         157.124        0.0923538        -178.218
61.45                  0.0922925        -47.5589         0.995732         157.065         0.995732         157.065        0.0922925         -178.31
61.46                   0.092132        -47.5843         0.995747         157.002         0.995747         157.002         0.092132        -178.412
61.47                  0.0918181        -47.6111         0.995776          156.93         0.995776          156.93        0.0918181         -178.53
61.48                  0.0912445        -47.6399         0.995829         156.843         0.995829         156.843        0.0912445        -178.674
61.49                  0.0901736         -47.672         0.995926         156.728         0.995926         156.728        0.0901736        -178.872
61.5                   0.0879414        -47.7087         0.996126         156.546         0.996126         156.546        0.0879414        -179.199
61.51                  0.0817265        -47.7348         0.996655         156.135         0.996655         156.135        0.0817265        -179.995
61.52                   0.020695        -36.1144         0.999786         152.526         0.999786         152.526         0.020695         161.166
61.53                   0.119468        -47.1985         0.992838          158.21         0.992838          158.21         0.119468        -176.381
61.54                   0.106693         -47.547         0.994292          157.42         0.994292          157.42         0.106693        -177.612
61.55                   0.103292        -47.6402         0.994651         157.173         0.994651         157.173         0.103292        -178.014
61.56                   0.101801        -47.6919         0.994805         157.036         0.994805         157.036         0.101801        -178.237
61.57                   0.101019        -47.7299         0.994885          156.94         0.994885          156.94         0.101019        -178.391
61.58                   0.100575        -47.7617         0.994929         156.863         0.994929         156.863         0.100575        -178.512
61.59                   0.100319        -47.7902         0.994955         156.798         0.994955         156.798         0.100319        -178.613
61.6                    0.100178        -47.8168          0.99497          156.74          0.99497          156.74         0.100178        -178.704
61.61                   0.100111        -47.8421         0.994976         156.686         0.994976         156.686         0.100111        -178.786
61.62                   0.100095        -47.8666         0.994978         156.635         0.994978         156.635         0.100095        -178.863
61.63                   0.100116        -47.8904         0.994976         156.587         0.994976         156.587         0.100116        -178.936
61.64                   0.100164        -47.9138         0.994971          156.54         0.994971          156.54         0.100164        -179.006
61.65                   0.100232        -47.9368         0.994964         156.495         0.994964         156.495         0.100232        -179.073
61.66                   0.100315        -47.9594         0.994956         156.451         0.994956         156.451         0.100315        -179.139
61.67                   0.100411        -47.9817         0.994946         156.407         0.994946         156.407         0.100411        -179.204
61.68                   0.100515        -48.0037         0.994935         156.365         0.994935         156.365         0.100515        -179.267
61.69                   0.100627        -48.0254         0.994924         156.322         0.994924         156.322         0.100627         -179.33
61.7                    0.100745        -48.0467         0.994912         156.281         0.994912         156.281         0.100745        -179.392
61.71                   0.100867        -48.0674           0.9949         156.239           0.9949         156.239         0.100867        -179.454
61.72                   0.100992        -48.0876         0.994887         156.198         0.994887         156.198         0.100992        -179.516
61.73                    0.10112        -48.1069         0.994874         156.157         0.994874         156.157          0.10112        -179.579
61.74                   0.101249        -48.1251         0.994861         156.117         0.994861         156.117         0.101249        -179.642
61.75                   0.101377        -48.1416         0.994848         156.076         0.994848         156.076         0.101377        -179.707
61.76                   0.101504        -48.1554         0.994835         156.035         0.994835         156.035         0.101504        -179.775
61.77                   0.101625        -48.1646         0.994822         155.993         0.994822         155.993         0.101625        -179.849
61.78                   0.101734        -48.1649         0.994811         155.951         0.994811         155.951         0.101734        -179.934
61.79                   0.101814        -48.1448         0.994803         155.905         0.994803         155.905         0.101814         179.955
61.8                    0.101794        -48.0559         0.994804          155.85         0.994804          155.85         0.101794         179.756
61.81                   0.100676        -47.1526         0.994919         155.682         0.994919         155.682         0.100676         178.517
61.82                   0.103189        -48.8129         0.994667         155.879         0.994667         155.879         0.103188        -179.427
61.83                   0.102916        -48.5746         0.994692         155.801         0.994692         155.801         0.102916        -179.823
61.84                   0.102956        -48.5289         0.994687         155.752         0.994687         155.752         0.102956        -179.967
61.85                   0.103056        -48.5208         0.994677         155.709         0.994677         155.709         0.103056         179.939
61.86                   0.103177        -48.5264         0.994664         155.668         0.994664         155.668         0.103177         179.863
61.87                   0.103308        -48.5385          0.99465         155.628          0.99465         155.628         0.103308         179.796
61.88                   0.103445        -48.5543         0.994636         155.589         0.994636         155.589         0.103445         179.733
61.89                   0.103586        -48.5724         0.994621          155.55         0.994621          155.55         0.103586         179.674
61.9                    0.103729         -48.592         0.994606         155.512         0.994606         155.512         0.103728         179.616
61.91                   0.103873        -48.6127         0.994591         155.474         0.994591         155.474         0.103873          179.56
61.92                   0.104019        -48.6342         0.994576         155.436         0.994576         155.436         0.104018         179.506
61.93                   0.104165        -48.6563          0.99456         155.398          0.99456         155.398         0.104165         179.452
61.94                   0.104312        -48.6788         0.994545          155.36         0.994545          155.36         0.104312         179.399
61.95                   0.104459        -48.7018          0.99453         155.322          0.99453         155.322         0.104459         179.346
61.96                   0.104607        -48.7251         0.994514         155.285         0.994514         155.285         0.104607         179.294
61.97                   0.104755        -48.7486         0.994498         155.247         0.994498         155.247         0.104755         179.243