! TOUCHSTONE file generated by CST MICROWAVE STUDIO
! Date and time: Sat Feb 17 14:30:07 2024
! Project name: MUT_rotado.cst
! Parameters = {AngX=1.5}
! Header version: 2018
! Port assignment regex: !\s*Touchstone port\s*([0-9]+)\s*=\s*(CST MWS port|CST DS port)\s*([0-9]+|Zmin|Zmax)\s*\(\"(.*)\"\)(\s*mode\s*([0-9]+))?.*
! Touchstone port assignment:
! Touchstone port 1 = CST MWS port 1 ("")
! Touchstone port 2 = CST MWS port 2 ("")
# GHz S MA R 376.7
60                      0.104886        -89.2042         0.994293         161.396         0.994353         161.402         0.104945        -127.955
60.01                   0.105072        -89.2299         0.994258         161.359         0.994333         161.366         0.105139        -128.001
60.02                   0.105258        -89.2554         0.994221         161.322         0.994312          161.33         0.105334        -128.047
60.03                   0.105445        -89.2807         0.994184         161.286          0.99429         161.294          0.10553        -128.093
60.04                   0.105633        -89.3058         0.994145         161.249         0.994269         161.257         0.105727         -128.14
60.05                   0.105822        -89.3307         0.994106         161.212         0.994247         161.221         0.105925        -128.187
60.06                   0.106012        -89.3553         0.994065         161.174         0.994224         161.184         0.106125        -128.234
60.07                   0.106203        -89.3797         0.994023         161.137         0.994202         161.147         0.106326        -128.282
60.08                   0.106396        -89.4038         0.993979         161.099         0.994179          161.11         0.106529        -128.331
60.09                    0.10659        -89.4276         0.993934         161.061         0.994155         161.073         0.106734         -128.38
60.1                    0.106785         -89.451         0.993887         161.023         0.994131         161.036         0.106941        -128.429
60.11                   0.106982         -89.474         0.993837         160.985         0.994106         160.998         0.107149         -128.48
60.12                   0.107181        -89.4966         0.993785         160.946         0.994081          160.96          0.10736        -128.531
60.13                   0.107382        -89.5187          0.99373         160.907         0.994055         160.922         0.107574        -128.583
60.14                   0.107584        -89.5403         0.993672         160.868         0.994028         160.883         0.107791        -128.636
60.15                    0.10779        -89.5613          0.99361         160.828            0.994         160.845         0.108011         -128.69
60.16                   0.107997        -89.5817         0.993544         160.788         0.993971         160.805         0.108234        -128.745
60.17                   0.108208        -89.6013         0.993473         160.747         0.993941         160.766         0.108461        -128.801
60.18                   0.108421          -89.62         0.993395         160.706          0.99391         160.726         0.108693        -128.859
60.19                   0.108638        -89.6378          0.99331         160.663         0.993877         160.685          0.10893        -128.919
60.2                    0.108859        -89.6545         0.993217          160.62         0.993843         160.644         0.109173        -128.981
60.21                   0.109085          -89.67         0.993113         160.576         0.993806         160.601         0.109422        -129.045
60.22                   0.109316         -89.684         0.992996         160.531         0.993767         160.558         0.109679        -129.112
60.23                   0.109552        -89.6963         0.992863         160.485         0.993725         160.514         0.109945        -129.182
60.24                   0.109795        -89.7067         0.992709         160.437          0.99368         160.468         0.110221        -129.256
60.25                   0.110046        -89.7146         0.992529         160.387          0.99363         160.421          0.11051        -129.335
60.26                   0.110307        -89.7198         0.992314         160.334         0.993574         160.372         0.110813        -129.418
60.27                   0.110578        -89.7216         0.992053         160.279         0.993511          160.32         0.111134        -129.509
60.28                   0.110862        -89.7193         0.991728          160.22         0.993439         160.265         0.111477        -129.607
60.29                   0.111161        -89.7118         0.991312         160.156         0.993354         160.206         0.111846        -129.716
60.3                     0.11148        -89.6979         0.990762         160.086         0.993251         160.141          0.11225        -129.838
60.31                   0.111822        -89.6757         0.990009         160.009         0.993123         160.068         0.112697        -129.977
60.32                   0.112195        -89.6425         0.988928         159.923         0.992956         159.984         0.113202        -130.139
60.33                   0.112608        -89.5947         0.987294         159.828         0.992726         159.883         0.113785        -130.334
60.34                   0.113072        -89.5265         0.984676         159.729         0.992386         159.754         0.114479        -130.575
60.35                   0.113609        -89.4291         0.980304          159.66         0.991824         159.576         0.115335        -130.886
60.36                   0.114251        -89.2892         0.973451         159.749          0.99073         159.294         0.116446        -131.312
60.37                   0.115043        -89.0862         0.967446         160.261         0.987837         158.743         0.117984        -131.951
60.38                   0.116032        -88.7579         0.971893         160.937         0.971686         157.034         0.120255        -133.027
60.39                   0.117735        -88.3175         0.981399         161.092          0.91956         166.732         0.124509         -135.18
60.4                    0.119449         -87.354         0.987452          160.95         0.991735         162.167         0.131451        -141.856
60.41                   0.122279        -85.0709         0.990445         160.766         0.994107         161.218        0.0948764        -169.101
60.42                   0.122678        -78.1783         0.991842         160.621         0.994256         160.832        0.0787147          -127.4
60.43                  0.0909732        -75.2265         0.992685         160.494         0.994274         160.605        0.0947303        -126.088
60.44                  0.0930946        -89.1116         0.993206         160.392         0.994272         160.454         0.100731        -126.767
60.45                   0.100201          -91.26         0.993487         160.305         0.994215         160.341         0.103812         -127.31
60.46                   0.103853        -91.5716          0.99365         160.229         0.994152         160.249         0.105713        -127.705
60.47                   0.105987        -91.5914         0.993744          160.16         0.994092          160.17          0.10703        -128.003
60.48                     0.1074        -91.5567         0.993797         160.097         0.994036         160.102         0.108015        -128.236
60.49                   0.108424        -91.5171         0.993823         160.039         0.993985          160.04         0.108795        -128.426
60.5                    0.109216        -91.4837         0.993831         159.984         0.993937         159.982          0.10944        -128.586
60.51                    0.10986        -91.4587         0.993828         159.932         0.993892         159.929         0.109991        -128.723
60.52                   0.110403        -91.4413         0.993816         159.883         0.993851         159.878         0.110474        -128.843
60.53                   0.110875        -91.4305         0.993799         159.835         0.993811          159.83         0.110906         -128.95
60.54                   0.111295        -91.4253         0.993778         159.789         0.993774         159.783         0.111299        -129.047
60.55                   0.111677        -91.4247         0.993754         159.744         0.993738         159.738         0.111663        -129.137
60.56                   0.112028        -91.4279         0.993728           159.7         0.993703         159.694         0.112002        -129.219
60.57                   0.112356        -91.4344         0.993701         159.657          0.99367         159.651         0.112322        -129.297
60.58                   0.112665        -91.4436         0.993673         159.614         0.993638         159.609         0.112627         -129.37
60.59                   0.112959        -91.4552         0.993644         159.573         0.993607         159.567         0.112918        -129.439
60.6                    0.113241        -91.4688         0.993614         159.532         0.993576         159.526         0.113199        -129.505
60.61                   0.113512         -91.484         0.993584         159.491         0.993546         159.486          0.11347        -129.568
60.62                   0.113775        -91.5008         0.993554         159.451         0.993517         159.446         0.113735        -129.629
60.63                   0.114031        -91.5189         0.993524         159.411         0.993488         159.407         0.113992        -129.688
60.64                   0.114281        -91.5382         0.993494         159.372         0.993459         159.367         0.114245        -129.746
60.65                   0.114526        -91.5585         0.993464         159.332         0.993431         159.328         0.114492        -129.801
60.66                   0.114767        -91.5798         0.993434         159.293         0.993403          159.29         0.114736        -129.856
60.67                   0.115005        -91.6019         0.993403         159.255         0.993375         159.251         0.114977        -129.909
60.68                   0.115239        -91.6248         0.993373         159.216         0.993348         159.213         0.115215        -129.961
60.69                   0.115472        -91.6484         0.993343         159.178          0.99332         159.175         0.115451        -130.012
60.7                    0.115702        -91.6727         0.993313         159.139         0.993293         159.137         0.115685        -130.062
60.71                   0.115932        -91.6975         0.993282         159.101         0.993266         159.099         0.115918        -130.111
60.72                    0.11616         -91.723         0.993252         159.063         0.993238         159.061          0.11615         -130.16
60.73                   0.116388         -91.749         0.993222         159.025         0.993211         159.023         0.116382        -130.208
60.74                   0.116615        -91.7755         0.993191         158.987         0.993184         158.986         0.116613        -130.255
60.75                   0.116843        -91.8025          0.99316         158.949         0.993156         158.948         0.116845        -130.302
60.76                   0.117072        -91.8301          0.99313         158.911         0.993129          158.91         0.117078        -130.348
60.77                   0.117301        -91.8581         0.993098         158.873         0.993101         158.872         0.117312        -130.394
60.78                   0.117532        -91.8866         0.993067         158.834         0.993073         158.834         0.117547         -130.44
60.79                   0.117765        -91.9157         0.993035         158.796         0.993045         158.796         0.117784        -130.485
60.8                    0.118001        -91.9452         0.993003         158.758         0.993016         158.758         0.118025        -130.529
60.81                   0.118241        -91.9753         0.992971         158.719         0.992987         158.719         0.118269        -130.574
60.82                   0.118484         -92.006         0.992937          158.68         0.992957         158.681         0.118517        -130.618
60.83                   0.118733        -92.0374         0.992903         158.641         0.992926         158.642          0.11877        -130.662
60.84                   0.118988        -92.0694         0.992868         158.601         0.992895         158.603          0.11903        -130.706
60.85                   0.119251        -92.1023         0.992832         158.561         0.992862         158.563         0.119299        -130.749
60.86                   0.119524         -92.136         0.992794         158.521         0.992828         158.523         0.119577        -130.792
60.87                    0.11981        -92.1709         0.992755          158.48         0.992793         158.481         0.119868        -130.835
60.88                   0.120111        -92.2072         0.992713         158.437         0.992755         158.439         0.120174        -130.878
60.89                   0.120434        -92.2452         0.992669         158.394         0.992715         158.396         0.120501        -130.921
60.9                    0.120783        -92.2855          0.99262         158.349         0.992672         158.352         0.120854        -130.964
60.91                   0.121169         -92.329         0.992567         158.302         0.992624         158.305         0.121243        -131.008
60.92                   0.121604        -92.3771         0.992507         158.253          0.99257         158.255          0.12168        -131.051
60.93                   0.122112        -92.4321         0.992437         158.199         0.992507         158.202         0.122186        -131.095
60.94                   0.122724        -92.4977         0.992353         158.139          0.99243         158.142         0.122795         -131.14
60.95                   0.123503        -92.5809         0.992247          158.07         0.992333         158.073         0.123568        -131.186
60.96                   0.124565        -92.6944         0.992102         157.985         0.992198         157.988         0.124621        -131.235
60.97                   0.126173         -92.866         0.991883         157.868         0.991992         157.871         0.126221        -131.291
60.98                   0.129082        -93.1723         0.991486         157.675         0.991609         157.677          0.12913        -131.365
60.99                   0.136642        -93.9395          0.99043         157.212         0.990569          157.21         0.136724        -131.521
61                      0.234009        -102.188         0.972013         151.504         0.972228         151.421         0.235411        -134.836
61.01                  0.0991017        -89.7801         0.994998         159.356         0.995254         159.365        0.0989441        -131.456
61.02                   0.111281        -91.2831         0.993619         158.623         0.993894         158.627         0.111174        -131.397
61.03                   0.115013        -91.7235          0.99315         158.384         0.993467         158.384         0.114925        -131.438
61.04                   0.116897        -91.9484         0.992916         158.254         0.993285         158.248         0.116823        -131.482
61.05                   0.118076        -92.0931         0.992799         158.165         0.993332         158.155         0.118018        -131.526
61.06                   0.118915        -92.1991          0.99275         158.094         0.993083         158.107         0.118873         -131.57
61.07                    0.11956        -92.2826         0.992726         158.033         0.992834         158.036         0.119534        -131.615
61.08                   0.120086        -92.3528         0.992703         157.977          0.99276         157.977         0.120076        -131.663
61.09                   0.120533        -92.4139         0.992676         157.926         0.992706         157.925         0.120535        -131.711
61.1                    0.120926        -92.4687         0.992645         157.878          0.99266         157.878         0.120933        -131.761
61.11                    0.12128        -92.5188         0.992613         157.833         0.992617         157.832         0.121287        -131.809
61.12                   0.121604        -92.5655         0.992579         157.789         0.992578         157.789         0.121606        -131.855
61.13                   0.121906        -92.6095         0.992546         157.747         0.992541         157.747         0.121902        -131.899
61.14                    0.12219        -92.6514         0.992513         157.705         0.992507         157.706          0.12218        -131.942
61.15                   0.122459        -92.6917         0.992481         157.665         0.992473         157.666         0.122445        -131.983
61.16                   0.122718        -92.7306         0.992449         157.626         0.992441         157.627         0.122699        -132.024
61.17                   0.122967        -92.7684         0.992418         157.587          0.99241         157.589         0.122945        -132.063
61.18                   0.123209        -92.8052         0.992388         157.548          0.99238          157.55         0.123184        -132.103
61.19                   0.123444        -92.8413         0.992359          157.51          0.99235         157.513         0.123417        -132.142
61.2                    0.123673        -92.8768          0.99233         157.473         0.992322         157.475         0.123645        -132.181
61.21                   0.123898        -92.9117         0.992302         157.436         0.992293         157.438         0.123868         -132.22
61.22                   0.124118        -92.9461         0.992274         157.399         0.992265         157.402         0.124088        -132.259
61.23                   0.124336        -92.9801         0.992246         157.362         0.992238         157.365         0.124305        -132.298
61.24                    0.12455        -93.0138         0.992219         157.326         0.992211         157.329         0.124519        -132.337
61.25                   0.124761        -93.0472         0.992192         157.289         0.992184         157.292          0.12473        -132.376
61.26                    0.12497        -93.0803         0.992166         157.253         0.992157         157.256         0.124939        -132.415
61.27                   0.125176        -93.1131         0.992139         157.217         0.992131          157.22         0.125145        -132.453
61.28                   0.125381        -93.1458         0.992113         157.181         0.992104         157.185          0.12535        -132.492
61.29                   0.125584        -93.1783         0.992087         157.146         0.992078         157.149         0.125554        -132.531
61.3                    0.125786        -93.2106         0.992062          157.11         0.992052         157.113         0.125756        -132.569
61.31                   0.125986        -93.2427         0.992036         157.075         0.992027         157.078         0.125956        -132.608
61.32                   0.126185        -93.2748         0.992011         157.039         0.992001         157.043         0.126155        -132.647
61.33                   0.126383        -93.3067         0.991986         157.004         0.991976         157.007         0.126353        -132.685
61.34                    0.12658        -93.3385         0.991961         156.969          0.99195         156.972         0.126551        -132.724
61.35                   0.126775        -93.3703         0.991936         156.933         0.991925         156.937         0.126747        -132.762
61.36                    0.12697        -93.4019         0.991911         156.898         0.991899         156.902         0.126942        -132.801
61.37                   0.127164        -93.4335         0.991886         156.863         0.991874         156.867         0.127136        -132.839
61.38                   0.127358         -93.465         0.991862         156.828         0.991849         156.832          0.12733        -132.878
61.39                    0.12755        -93.4965         0.991837         156.793         0.991824         156.797         0.127523        -132.916
61.4                    0.127742        -93.5279         0.991813         156.758         0.991799         156.762         0.127716        -132.955
61.41                   0.127934        -93.5592         0.991788         156.723         0.991774         156.727         0.127907        -132.993
61.42                   0.128125        -93.5905         0.991764         156.689         0.991749         156.692         0.128099        -133.031
61.43                   0.128315        -93.6218          0.99174         156.654         0.991724         156.657         0.128289         -133.07
61.44                   0.128505         -93.653         0.991715         156.619         0.991699         156.623          0.12848        -133.108
61.45                   0.128695        -93.6842         0.991691         156.584         0.991674         156.588          0.12867        -133.146
61.46                   0.128884        -93.7154         0.991667          156.55          0.99165         156.553         0.128859        -133.185
61.47                   0.129073        -93.7465         0.991642         156.515         0.991625         156.518         0.129048        -133.223
61.48                   0.129261        -93.7776         0.991618         156.481           0.9916         156.484         0.129237        -133.261
61.49                   0.129449        -93.8087         0.991594         156.446         0.991575         156.449         0.129425        -133.299
61.5                    0.129637        -93.8398          0.99157         156.412          0.99155         156.415         0.129613        -133.337
61.51                   0.129824        -93.8709         0.991546         156.377         0.991526          156.38         0.129801        -133.375
61.52                   0.130011        -93.9019         0.991521         156.343         0.991501         156.345         0.129988        -133.413
61.53                   0.130198         -93.933         0.991497         156.308         0.991476         156.311         0.130175        -133.451
61.54                   0.130385         -93.964         0.991473         156.274         0.991451         156.276         0.130362         -133.49
61.55                   0.130571         -93.995         0.991449         156.239         0.991427         156.242         0.130549        -133.528
61.56                   0.130757         -94.026         0.991425         156.205         0.991402         156.207         0.130736        -133.565
61.57                   0.130943         -94.057           0.9914         156.171         0.991377         156.173         0.130922        -133.603
61.58                   0.131129         -94.088         0.991376         156.136         0.991352         156.139         0.131108        -133.641
61.59                   0.131315         -94.119         0.991352         156.102         0.991327         156.104         0.131294        -133.679
61.6                      0.1315          -94.15         0.991327         156.068         0.991303          156.07         0.131479        -133.717
61.61                   0.131685         -94.181         0.991303         156.033         0.991278         156.035         0.131665        -133.755
61.62                    0.13187        -94.2119         0.991279         155.999         0.991253         156.001          0.13185        -133.793
61.63                   0.132055        -94.2429         0.991254         155.965         0.991228         155.967         0.132036         -133.83
61.64                    0.13224        -94.2739          0.99123         155.931         0.991204         155.932         0.132221        -133.868
61.65                   0.132425        -94.3048         0.991206         155.896         0.991179         155.898         0.132406        -133.906
61.66                   0.132609        -94.3358         0.991181         155.862         0.991154         155.864          0.13259        -133.944
61.67                   0.132793        -94.3668         0.991157         155.828         0.991129         155.829         0.132775        -133.981
61.68                   0.132978        -94.3977         0.991132         155.794         0.991104         155.795          0.13296        -134.019
61.69                   0.133162        -94.4287         0.991108          155.76         0.991079         155.761         0.133144        -134.056
61.7                    0.133346        -94.4597         0.991083         155.725         0.991054         155.727         0.133328        -134.094
61.71                    0.13353        -94.4907         0.991059         155.691          0.99103         155.692         0.133513        -134.132
61.72                   0.133713        -94.5216         0.991034         155.657         0.991005         155.658         0.133697        -134.169
61.73                   0.133897        -94.5526         0.991009         155.623          0.99098         155.624         0.133881        -134.207
61.74                   0.134081        -94.5836         0.990984         155.589         0.990955          155.59         0.134065        -134.244
61.75                   0.134264        -94.6146          0.99096         155.555          0.99093         155.555         0.134248        -134.281
61.76                   0.134448        -94.6456         0.990935         155.521         0.990905         155.521         0.134432        -134.319
61.77                   0.134631        -94.6766          0.99091         155.487          0.99088         155.487         0.134616        -134.356
61.78                   0.134814        -94.7075         0.990885         155.453         0.990855         155.453         0.134799        -134.394
61.79                   0.134997        -94.7385          0.99086         155.419          0.99083         155.418         0.134983        -134.431
61.8                     0.13518        -94.7695         0.990835         155.385         0.990805         155.384         0.135166        -134.468
61.81                   0.135363        -94.8006          0.99081         155.351          0.99078          155.35          0.13535        -134.505
61.82                   0.135546        -94.8316         0.990785         155.317         0.990755         155.316         0.135533        -134.543
61.83                   0.135729        -94.8626          0.99076         155.283          0.99073         155.282         0.135716         -134.58
61.84                   0.135912        -94.8936         0.990735         155.249         0.990705         155.248         0.135899        -134.617
61.85                   0.136095        -94.9246          0.99071         155.215          0.99068         155.214         0.136082        -134.654
61.86                   0.136277        -94.9557         0.990685         155.181         0.990655         155.179         0.136265        -134.691
61.87                    0.13646        -94.9867          0.99066         155.147          0.99063         155.145         0.136448        -134.728
61.88                   0.136643        -95.0177         0.990634         155.113         0.990605         155.111         0.136631        -134.765
61.89                   0.136825        -95.0488         0.990609         155.079         0.990579         155.077         0.136814        -134.802
61.9                    0.137008        -95.0798         0.990584         155.045         0.990554         155.043         0.136996        -134.839
61.91                    0.13719        -95.1109         0.990558         155.011         0.990529         155.009         0.137179        -134.876
61.92                   0.137372         -95.142         0.990533         154.977         0.990504         154.975         0.137362        -134.913
61.93                   0.137555         -95.173         0.990507         154.943         0.990479         154.941         0.137544         -134.95
61.94                   0.137737        -95.2041         0.990482         154.909         0.990454         154.906         0.137727        -134.987
61.95                   0.137919        -95.2352         0.990456         154.875         0.990429         154.872         0.137909        -135.024
61.96                   0.138101        -95.2663         0.990431         154.841         0.990403         154.838         0.138092         -135.06
61.97                   0.138284        -95.2974         0.990405         154.807         0.990378         154.804         0.138274        -135.097