! TOUCHSTONE file generated by CST MICROWAVE STUDIO
! Date and time: Wed Feb 21 09:08:29 2024
! Project name: material_prueba.cst
! Parameters = {Y=0}
! Header version: 2018
! Port assignment regex: !\s*Touchstone port\s*([0-9]+)\s*=\s*(CST MWS port|CST DS port)\s*([0-9]+|Zmin|Zmax)\s*\(\"(.*)\"\)(\s*mode\s*([0-9]+))?.*
! Touchstone port assignment:
! Touchstone port 1 = CST MWS port 1 ("")
! Touchstone port 2 = CST MWS port 2 ("")
# GHz S MA R 376.7
60                      0.111478        -109.351          0.99359         160.737         0.993517         160.745          0.11137        -109.164
60.01                   0.111658        -109.383         0.993575         160.703         0.993499         160.711         0.111551        -109.197
60.02                   0.111838        -109.415          0.99356         160.669          0.99348         160.676         0.111732        -109.229
60.03                   0.112018        -109.447         0.993545         160.635         0.993462         160.641         0.111914        -109.262
60.04                   0.112198        -109.479          0.99353         160.601         0.993444         160.607         0.112095        -109.295
60.05                   0.112378        -109.511         0.993515         160.567         0.993425         160.572         0.112276        -109.327
60.06                   0.112558        -109.543         0.993499         160.533         0.993407         160.538         0.112458         -109.36
60.07                   0.112739        -109.575         0.993484         160.499         0.993388         160.503         0.112639        -109.393
60.08                   0.112919        -109.607         0.993469         160.465          0.99337         160.469          0.11282        -109.425
60.09                   0.113099         -109.64         0.993453         160.431         0.993351         160.434         0.113002        -109.458
60.1                     0.11328        -109.672         0.993438         160.397         0.993332         160.399         0.113183        -109.491
60.11                    0.11346        -109.704         0.993422         160.363         0.993314         160.365         0.113365        -109.524
60.12                    0.11364        -109.736         0.993406         160.329         0.993295          160.33         0.113546        -109.557
60.13                   0.113821        -109.768          0.99339         160.295         0.993276         160.296         0.113728        -109.589
60.14                   0.114001          -109.8         0.993374         160.261         0.993257         160.261         0.113909        -109.622
60.15                   0.114182        -109.833         0.993359         160.227         0.993238         160.227         0.114091        -109.655
60.16                   0.114362        -109.865         0.993343         160.193         0.993219         160.192         0.114272        -109.688
60.17                   0.114543        -109.897         0.993326         160.159           0.9932         160.158         0.114454        -109.721
60.18                   0.114724        -109.929          0.99331         160.125         0.993181         160.123         0.114636        -109.754
60.19                   0.114904        -109.962         0.993294         160.091         0.993162         160.088         0.114817        -109.787
60.2                    0.115085        -109.994         0.993278         160.057         0.993143         160.054         0.114999         -109.82
60.21                   0.115265        -110.026         0.993261         160.023         0.993124         160.019         0.115181        -109.853
60.22                   0.115446        -110.059         0.993245         159.989         0.993105         159.985         0.115363        -109.886
60.23                   0.115627        -110.091         0.993228         159.955         0.993086          159.95         0.115544        -109.919
60.24                   0.115808        -110.123         0.993212         159.921         0.993067         159.916         0.115726        -109.952
60.25                   0.115988        -110.156         0.993195         159.887         0.993047         159.881         0.115908        -109.986
60.26                   0.116169        -110.188         0.993178         159.853         0.993028         159.847          0.11609        -110.019
60.27                    0.11635        -110.221         0.993161         159.819         0.993008         159.812         0.116272        -110.052
60.28                   0.116531        -110.253         0.993144         159.785         0.992989         159.778         0.116453        -110.085
60.29                   0.116712        -110.286         0.993127         159.751          0.99297         159.743         0.116635        -110.118
60.3                    0.116893        -110.318          0.99311         159.717          0.99295         159.709         0.116817        -110.152
60.31                   0.117074        -110.351         0.993093         159.683          0.99293         159.675         0.116999        -110.185
60.32                   0.117254        -110.383         0.993076         159.648         0.992911          159.64         0.117181        -110.218
60.33                   0.117435        -110.416         0.993058         159.614         0.992891         159.606         0.117363        -110.251
60.34                   0.117616        -110.448         0.993041          159.58         0.992871         159.571         0.117545        -110.285
60.35                   0.117798        -110.481         0.993023         159.546         0.992852         159.537         0.117727        -110.318
60.36                   0.117979        -110.513         0.993006         159.512         0.992832         159.502         0.117909        -110.351
60.37                    0.11816        -110.546         0.992988         159.478         0.992812         159.468         0.118091        -110.385
60.38                   0.118341        -110.578          0.99297         159.444         0.992792         159.433         0.118274        -110.418
60.39                   0.118522        -110.611         0.992953          159.41         0.992772         159.399         0.118456        -110.452
60.4                    0.118703        -110.644         0.992935         159.376         0.992752         159.364         0.118638        -110.485
60.41                   0.118884        -110.676         0.992917         159.342         0.992732          159.33          0.11882        -110.519
60.42                   0.119066        -110.709         0.992899         159.308         0.992712         159.296         0.119002        -110.552
60.43                   0.119247        -110.742         0.992881         159.274         0.992692         159.261         0.119184        -110.586
60.44                   0.119428        -110.774         0.992863          159.24         0.992672         159.227         0.119367        -110.619
60.45                   0.119609        -110.807         0.992844         159.206         0.992652         159.192         0.119549        -110.653
60.46                   0.119791         -110.84         0.992826         159.172         0.992631         159.158         0.119731        -110.686
60.47                   0.119972        -110.873         0.992807         159.138         0.992611         159.123         0.119914         -110.72
60.48                   0.120153        -110.905         0.992789         159.104         0.992591         159.089         0.120096        -110.753
60.49                   0.120335        -110.938          0.99277         159.069          0.99257         159.055         0.120278        -110.787
60.5                    0.120516        -110.971         0.992752         159.035          0.99255          159.02         0.120461        -110.821
60.51                   0.120698        -111.004         0.992733         159.001          0.99253         158.986         0.120643        -110.854
60.52                   0.120879        -111.037         0.992714         158.967         0.992509         158.951         0.120825        -110.888
60.53                   0.121061        -111.069         0.992695         158.933         0.992488         158.917         0.121008        -110.922
60.54                   0.121242        -111.102         0.992676         158.899         0.992468         158.883          0.12119        -110.956
60.55                   0.121424        -111.135         0.992657         158.865         0.992447         158.848         0.121373        -110.989
60.56                   0.121605        -111.168         0.992638         158.831         0.992427         158.814         0.121555        -111.023
60.57                   0.121787        -111.201         0.992619         158.797         0.992406         158.779         0.121738        -111.057
60.58                   0.121968        -111.234           0.9926         158.763         0.992385         158.745          0.12192        -111.091
60.59                    0.12215        -111.267          0.99258         158.729         0.992364         158.711         0.122103        -111.125
60.6                    0.122332          -111.3         0.992561         158.695         0.992343         158.676         0.122286        -111.158
60.61                   0.122513        -111.333         0.992541          158.66         0.992322         158.642         0.122468        -111.192
60.62                   0.122695        -111.366         0.992522         158.626         0.992301         158.608         0.122651        -111.226
60.63                   0.122877        -111.399         0.992502         158.592          0.99228         158.573         0.122834         -111.26
60.64                   0.123058        -111.432         0.992482         158.558         0.992259         158.539         0.123016        -111.294
60.65                    0.12324        -111.465         0.992463         158.524         0.992238         158.505         0.123199        -111.328
60.66                   0.123422        -111.498         0.992443          158.49         0.992217          158.47         0.123382        -111.362
60.67                   0.123604        -111.531         0.992423         158.456         0.992196         158.436         0.123564        -111.396
60.68                   0.123786        -111.564         0.992403         158.422         0.992175         158.402         0.123747         -111.43
60.69                   0.123967        -111.597         0.992383         158.388         0.992154         158.367          0.12393        -111.464
60.7                    0.124149         -111.63         0.992362         158.354         0.992132         158.333         0.124113        -111.498
60.71                   0.124331        -111.663         0.992342          158.32         0.992111         158.299         0.124296        -111.532
60.72                   0.124513        -111.696         0.992322         158.285          0.99209         158.264         0.124479        -111.566
60.73                   0.124695        -111.729         0.992301         158.251         0.992068          158.23         0.124661          -111.6
60.74                   0.124877        -111.763         0.992281         158.217         0.992047         158.196         0.124844        -111.634
60.75                   0.125059        -111.796          0.99226         158.183         0.992025         158.161         0.125027        -111.668
60.76                   0.125241        -111.829         0.992239         158.149         0.992004         158.127          0.12521        -111.703
60.77                   0.125423        -111.862         0.992219         158.115         0.991982         158.093         0.125393        -111.737
60.78                   0.125605        -111.895         0.992198         158.081          0.99196         158.058         0.125576        -111.771
60.79                   0.125787        -111.929         0.992177         158.047         0.991939         158.024         0.125759        -111.805
60.8                    0.125969        -111.962         0.992156         158.013         0.991917          157.99         0.125942        -111.839
60.81                   0.126151        -111.995         0.992135         157.978         0.991895         157.956         0.126125        -111.874
60.82                   0.126333        -112.028         0.992114         157.944         0.991873         157.921         0.126308        -111.908
60.83                   0.126515        -112.062         0.992093          157.91         0.991851         157.887         0.126492        -111.942
60.84                   0.126698        -112.095         0.992071         157.876         0.991829         157.853         0.126675        -111.976
60.85                    0.12688        -112.128          0.99205         157.842         0.991807         157.818         0.126858        -112.011
60.86                   0.127062        -112.162         0.992028         157.808         0.991785         157.784         0.127041        -112.045
60.87                   0.127244        -112.195         0.992007         157.774         0.991763          157.75         0.127224        -112.079
60.88                   0.127426        -112.228         0.991985          157.74         0.991741         157.716         0.127407        -112.114
60.89                   0.127609        -112.262         0.991964         157.706         0.991719         157.681         0.127591        -112.148
60.9                    0.127791        -112.295         0.991942         157.672         0.991697         157.647         0.127774        -112.182
60.91                   0.127973        -112.328          0.99192         157.637         0.991675         157.613         0.127957        -112.217
60.92                   0.128156        -112.362         0.991898         157.603         0.991652         157.579         0.128141        -112.251
60.93                   0.128338        -112.395         0.991876         157.569          0.99163         157.544         0.128324        -112.286
60.94                    0.12852        -112.429         0.991854         157.535         0.991608          157.51         0.128507         -112.32
60.95                   0.128703        -112.462         0.991832         157.501         0.991585         157.476         0.128691        -112.354
60.96                   0.128885        -112.495          0.99181         157.467         0.991563         157.442         0.128874        -112.389
60.97                   0.129067        -112.529         0.991788         157.433          0.99154         157.407         0.129057        -112.423
60.98                    0.12925        -112.562         0.991765         157.399         0.991518         157.373         0.129241        -112.458
60.99                   0.129432        -112.596         0.991743         157.365         0.991495         157.339         0.129424        -112.492
61                      0.129615        -112.629          0.99172          157.33         0.991473         157.305         0.129608        -112.527
61.01                   0.129797        -112.663         0.991698         157.296          0.99145         157.271         0.129791        -112.561
61.02                    0.12998        -112.696         0.991675         157.262         0.991427         157.236         0.129975        -112.596
61.03                   0.130162         -112.73         0.991652         157.228         0.991404         157.202         0.130158        -112.631
61.04                   0.130345        -112.763         0.991629         157.194         0.991382         157.168         0.130342        -112.665
61.05                   0.130527        -112.797         0.991606          157.16         0.991359         157.134         0.130525          -112.7
61.06                    0.13071        -112.831         0.991584         157.126         0.991336           157.1         0.130709        -112.734
61.07                   0.130892        -112.864          0.99156         157.092         0.991313         157.065         0.130893        -112.769
61.08                   0.131075        -112.898         0.991537         157.058          0.99129         157.031         0.131076        -112.804
61.09                   0.131258        -112.931         0.991514         157.023         0.991267         156.997          0.13126        -112.838
61.1                     0.13144        -112.965         0.991491         156.989         0.991244         156.963         0.131444        -112.873
61.11                   0.131623        -112.999         0.991468         156.955         0.991221         156.929         0.131627        -112.908
61.12                   0.131805        -113.032         0.991444         156.921         0.991198         156.894         0.131811        -112.942
61.13                   0.131988        -113.066         0.991421         156.887         0.991174          156.86         0.131995        -112.977
61.14                   0.132171          -113.1         0.991397         156.853         0.991151         156.826         0.132179        -113.012
61.15                   0.132354        -113.133         0.991373         156.819         0.991128         156.792         0.132362        -113.047
61.16                   0.132536        -113.167          0.99135         156.785         0.991105         156.758         0.132546        -113.081
61.17                   0.132719        -113.201         0.991326          156.75         0.991081         156.724          0.13273        -113.116
61.18                   0.132902        -113.234         0.991302         156.716         0.991058         156.689         0.132914        -113.151
61.19                   0.133085        -113.268         0.991278         156.682         0.991034         156.655         0.133098        -113.186
61.2                    0.133267        -113.302         0.991254         156.648         0.991011         156.621         0.133282         -113.22
61.21                    0.13345        -113.336          0.99123         156.614         0.990987         156.587         0.133466        -113.255
61.22                   0.133633        -113.369         0.991206          156.58         0.990964         156.553         0.133649         -113.29
61.23                   0.133816        -113.403         0.991182         156.546          0.99094         156.519         0.133833        -113.325
61.24                   0.133999        -113.437         0.991157         156.512         0.990917         156.485         0.134017         -113.36
61.25                   0.134181        -113.471         0.991133         156.478         0.990893          156.45         0.134201        -113.395
61.26                   0.134364        -113.504         0.991109         156.444         0.990869         156.416         0.134385        -113.429
61.27                   0.134547        -113.538         0.991084         156.409         0.990845         156.382         0.134569        -113.464
61.28                    0.13473        -113.572         0.991059         156.375         0.990821         156.348         0.134753        -113.499
61.29                   0.134913        -113.606         0.991035         156.341         0.990798         156.314         0.134938        -113.534
61.3                    0.135096         -113.64          0.99101         156.307         0.990774          156.28         0.135122        -113.569
61.31                   0.135279        -113.674         0.990985         156.273          0.99075         156.246         0.135306        -113.604
61.32                   0.135462        -113.707          0.99096         156.239         0.990726         156.212          0.13549        -113.639
61.33                   0.135645        -113.741         0.990935         156.205         0.990702         156.177         0.135674        -113.674
61.34                   0.135828        -113.775          0.99091         156.171         0.990678         156.143         0.135858        -113.709
61.35                   0.136011        -113.809         0.990885         156.137         0.990653         156.109         0.136042        -113.744
61.36                   0.136194        -113.843          0.99086         156.102         0.990629         156.075         0.136227        -113.779
61.37                   0.136377        -113.877         0.990835         156.068         0.990605         156.041         0.136411        -113.814
61.38                    0.13656        -113.911          0.99081         156.034         0.990581         156.007         0.136595        -113.849
61.39                   0.136743        -113.945         0.990784             156         0.990556         155.973         0.136779        -113.884
61.4                    0.136926        -113.979         0.990759         155.966         0.990532         155.939         0.136964        -113.919
61.41                   0.137109        -114.013         0.990733         155.932         0.990508         155.905         0.137148        -113.954
61.42                   0.137292        -114.047         0.990708         155.898         0.990483         155.871         0.137332        -113.989
61.43                   0.137475        -114.081         0.990682         155.864         0.990459         155.837         0.137517        -114.024
61.44                   0.137658        -114.115         0.990656          155.83         0.990434         155.803         0.137701        -114.059
61.45                   0.137842        -114.149          0.99063         155.796          0.99041         155.768         0.137886        -114.094
61.46                   0.138025        -114.183         0.990605         155.761         0.990385         155.734          0.13807        -114.129
61.47                   0.138208        -114.217         0.990579         155.727         0.990361           155.7         0.138254        -114.164
61.48                   0.138391        -114.251         0.990553         155.693         0.990336         155.666         0.138439        -114.199
61.49                   0.138574        -114.285         0.990527         155.659         0.990311         155.632         0.138623        -114.234
61.5                    0.138757        -114.319           0.9905         155.625         0.990286         155.598         0.138808        -114.269
61.51                   0.138941        -114.353         0.990474         155.591         0.990262         155.564         0.138992        -114.304
61.52                   0.139124        -114.387         0.990448         155.557         0.990237          155.53         0.139177         -114.34
61.53                   0.139307        -114.421         0.990422         155.523         0.990212         155.496         0.139361        -114.375
61.54                    0.13949        -114.455         0.990395         155.489         0.990187         155.462         0.139546         -114.41
61.55                   0.139674        -114.489         0.990369         155.455         0.990162         155.428         0.139731        -114.445
61.56                   0.139857        -114.523         0.990342         155.421         0.990137         155.394         0.139915         -114.48
61.57                    0.14004        -114.557         0.990316         155.386         0.990112          155.36           0.1401        -114.515
61.58                   0.140223        -114.591         0.990289         155.352         0.990087         155.326         0.140284         -114.55
61.59                   0.140407        -114.626         0.990262         155.318         0.990062         155.292         0.140469        -114.586
61.6                     0.14059         -114.66         0.990235         155.284         0.990036         155.258         0.140654        -114.621
61.61                   0.140773        -114.694         0.990209          155.25         0.990011         155.224         0.140839        -114.656
61.62                   0.140957        -114.728         0.990182         155.216         0.989986          155.19         0.141023        -114.691
61.63                    0.14114        -114.762         0.990155         155.182         0.989961         155.156         0.141208        -114.726
61.64                   0.141323        -114.796         0.990128         155.148         0.989935         155.122         0.141393        -114.761
61.65                   0.141507        -114.831           0.9901         155.114          0.98991         155.088         0.141578        -114.797
61.66                    0.14169        -114.865         0.990073          155.08         0.989885         155.054         0.141762        -114.832
61.67                   0.141873        -114.899         0.990046         155.046         0.989859          155.02         0.141947        -114.867
61.68                   0.142057        -114.933         0.990019         155.012         0.989834         154.986         0.142132        -114.902
61.69                    0.14224        -114.967         0.989991         154.978         0.989808         154.952         0.142317        -114.937
61.7                    0.142424        -115.002         0.989964         154.943         0.989782         154.918         0.142502        -114.973
61.71                   0.142607        -115.036         0.989936         154.909         0.989757         154.884         0.142686        -115.008
61.72                    0.14279         -115.07         0.989909         154.875         0.989731          154.85         0.142871        -115.043
61.73                   0.142974        -115.104         0.989881         154.841         0.989705         154.816         0.143056        -115.078
61.74                   0.143157        -115.138         0.989853         154.807          0.98968         154.782         0.143241        -115.114
61.75                   0.143341        -115.173         0.989826         154.773         0.989654         154.748         0.143426        -115.149
61.76                   0.143524        -115.207         0.989798         154.739         0.989628         154.714         0.143611        -115.184
61.77                   0.143708        -115.241          0.98977         154.705         0.989602          154.68         0.143796        -115.219
61.78                   0.143891        -115.275         0.989742         154.671         0.989576         154.646         0.143981        -115.255
61.79                   0.144075         -115.31         0.989714         154.637          0.98955         154.612         0.144166         -115.29
61.8                    0.144258        -115.344         0.989686         154.603         0.989524         154.578         0.144351        -115.325
61.81                   0.144442        -115.378         0.989658         154.569         0.989498         154.544         0.144536         -115.36
61.82                   0.144625        -115.413         0.989629         154.535         0.989472          154.51         0.144721        -115.396
61.83                   0.144809        -115.447         0.989601         154.501         0.989446         154.476         0.144906        -115.431
61.84                   0.144992        -115.481         0.989573         154.467          0.98942         154.442         0.145091        -115.466
61.85                   0.145176        -115.516         0.989544         154.433         0.989394         154.408         0.145276        -115.501
61.86                   0.145359         -115.55         0.989516         154.399         0.989368         154.374         0.145461        -115.537
61.87                   0.145543        -115.584         0.989487         154.365         0.989341          154.34         0.145647        -115.572
61.88                   0.145726        -115.619         0.989459         154.331         0.989315         154.306         0.145832        -115.607
61.89                    0.14591        -115.653          0.98943         154.296         0.989289         154.272         0.146017        -115.643
61.9                    0.146093        -115.687         0.989402         154.262         0.989262         154.239         0.146202        -115.678
61.91                   0.146277        -115.722         0.989373         154.228         0.989236         154.205         0.146387        -115.713
61.92                   0.146461        -115.756         0.989344         154.194         0.989209         154.171         0.146572        -115.748
61.93                   0.146644         -115.79         0.989315          154.16         0.989183         154.137         0.146758        -115.784
61.94                   0.146828        -115.825         0.989286         154.126         0.989156         154.103         0.146943        -115.819
61.95                   0.147011        -115.859         0.989257         154.092          0.98913         154.069         0.147128        -115.854
61.96                   0.147195        -115.894         0.989228         154.058         0.989103         154.035         0.147313         -115.89
61.97                   0.147379        -115.928         0.989199         154.024         0.989077         154.001         0.147499        -115.925