! TOUCHSTONE file generated by CST MICROWAVE STUDIO
! Date and time: Wed Feb 21 09:08:43 2024
! Project name: material_prueba.cst
! Parameters = {Y=1.25}
! Header version: 2018
! Port assignment regex: !\s*Touchstone port\s*([0-9]+)\s*=\s*(CST MWS port|CST DS port)\s*([0-9]+|Zmin|Zmax)\s*\(\"(.*)\"\)(\s*mode\s*([0-9]+))?.*
! Touchstone port assignment:
! Touchstone port 1 = CST MWS port 1 ("")
! Touchstone port 2 = CST MWS port 2 ("")
# GHz S MA R 376.7
60                      0.107786        -124.399         0.994174         161.605         0.994174         161.605         0.107786        -92.3907
60.01                   0.107949        -124.425         0.994186         161.571         0.994186         161.571         0.107982        -92.4348
60.02                   0.108111        -124.452         0.994197         161.536         0.994197         161.536         0.108178        -92.4788
60.03                   0.108273        -124.478         0.994207         161.502         0.994207         161.502         0.108373        -92.5227
60.04                   0.108436        -124.504         0.994217         161.468         0.994217         161.468         0.108568        -92.5666
60.05                   0.108599         -124.53         0.994226         161.434         0.994226         161.434         0.108764        -92.6104
60.06                   0.108761        -124.557         0.994235         161.399         0.994235         161.399         0.108959        -92.6542
60.07                   0.108924        -124.583         0.994244         161.365         0.994244         161.365         0.109153        -92.6978
60.08                   0.109087         -124.61         0.994252         161.331         0.994252         161.331         0.109348        -92.7415
60.09                    0.10925        -124.636         0.994259         161.296         0.994259         161.296         0.109543         -92.785
60.1                    0.109413        -124.663         0.994266         161.262         0.994266         161.262         0.109737        -92.8285
60.11                   0.109576        -124.689         0.994273         161.228         0.994273         161.228         0.109932        -92.8719
60.12                   0.109739        -124.716         0.994279         161.194         0.994279         161.194         0.110126        -92.9153
60.13                   0.109903        -124.743         0.994284         161.159         0.994284         161.159          0.11032        -92.9586
60.14                   0.110066         -124.77         0.994289         161.125         0.994289         161.125         0.110514        -93.0018
60.15                    0.11023        -124.796         0.994294         161.091         0.994294         161.091         0.110708         -93.045
60.16                   0.110393        -124.823         0.994298         161.057         0.994298         161.057         0.110902        -93.0881
60.17                   0.110557         -124.85         0.994301         161.022         0.994301         161.022         0.111095        -93.1312
60.18                   0.110721        -124.877         0.994305         160.988         0.994305         160.988         0.111289        -93.1742
60.19                   0.110884        -124.904         0.994307         160.954         0.994307         160.954         0.111482        -93.2171
60.2                    0.111048        -124.931         0.994309          160.92         0.994309          160.92         0.111675          -93.26
60.21                   0.111212        -124.958         0.994311         160.885         0.994311         160.885         0.111868        -93.3028
60.22                   0.111376        -124.986         0.994312         160.851         0.994312         160.851         0.112061        -93.3455
60.23                   0.111541        -125.013         0.994313         160.817         0.994313         160.817         0.112253        -93.3882
60.24                   0.111705         -125.04         0.994314         160.783         0.994314         160.783         0.112446        -93.4308
60.25                   0.111869        -125.067         0.994314         160.749         0.994314         160.749         0.112638        -93.4734
60.26                   0.112034        -125.095         0.994313         160.714         0.994313         160.714         0.112831        -93.5159
60.27                   0.112198        -125.122         0.994312          160.68         0.994312          160.68         0.113023        -93.5583
60.28                   0.112363         -125.15         0.994311         160.646         0.994311         160.646         0.113215        -93.6007
60.29                   0.112527        -125.177         0.994309         160.612         0.994309         160.612         0.113406         -93.643
60.3                    0.112692        -125.205         0.994307         160.578         0.994307         160.578         0.113598        -93.6853
60.31                   0.112857        -125.233         0.994304         160.544         0.994304         160.544          0.11379        -93.7275
60.32                   0.113022         -125.26         0.994301         160.509         0.994301         160.509         0.113981        -93.7696
60.33                   0.113187        -125.288         0.994298         160.475         0.994298         160.475         0.114172        -93.8117
60.34                   0.113352        -125.316         0.994294         160.441         0.994294         160.441         0.114363        -93.8537
60.35                   0.113517        -125.344          0.99429         160.407          0.99429         160.407         0.114554        -93.8957
60.36                   0.113682        -125.372         0.994285         160.373         0.994285         160.373         0.114745        -93.9376
60.37                   0.113848        -125.399          0.99428         160.339          0.99428         160.339         0.114935        -93.9794
60.38                   0.114013        -125.427         0.994274         160.305         0.994274         160.305         0.115125        -94.0212
60.39                   0.114178        -125.455         0.994268         160.271         0.994268         160.271         0.115316        -94.0629
60.4                    0.114344        -125.484         0.994262         160.236         0.994262         160.236         0.115506        -94.1046
60.41                    0.11451        -125.512         0.994255         160.202         0.994255         160.202         0.115696        -94.1462
60.42                   0.114675         -125.54         0.994248         160.168         0.994248         160.168         0.115885        -94.1877
60.43                   0.114841        -125.568         0.994241         160.134         0.994241         160.134         0.116075        -94.2292
60.44                   0.115007        -125.596         0.994233           160.1         0.994233           160.1         0.116264        -94.2706
60.45                   0.115173        -125.625         0.994225         160.066         0.994225         160.066         0.116453         -94.312
60.46                   0.115339        -125.653         0.994216         160.032         0.994216         160.032         0.116643        -94.3533
60.47                   0.115505        -125.682         0.994207         159.998         0.994207         159.998         0.116831        -94.3946
60.48                   0.115672         -125.71         0.994198         159.964         0.994198         159.964          0.11702        -94.4357
60.49                   0.115838        -125.739         0.994188          159.93         0.994188          159.93         0.117209        -94.4769
60.5                    0.116004        -125.767         0.994178         159.896         0.994178         159.896         0.117397         -94.518
60.51                   0.116171        -125.796         0.994167         159.862         0.994167         159.862         0.117585         -94.559
60.52                   0.116337        -125.825         0.994156         159.828         0.994156         159.828         0.117773        -94.5999
60.53                   0.116504        -125.853         0.994145         159.794         0.994145         159.794         0.117961        -94.6408
60.54                   0.116671        -125.882         0.994134          159.76         0.994134          159.76         0.118149        -94.6817
60.55                   0.116837        -125.911         0.994122         159.726         0.994122         159.726         0.118336        -94.7224
60.56                   0.117004         -125.94         0.994109         159.692         0.994109         159.692         0.118524        -94.7632
60.57                   0.117171        -125.969         0.994097         159.658         0.994097         159.658         0.118711        -94.8038
60.58                   0.117338        -125.998         0.994084         159.624         0.994084         159.624         0.118898        -94.8444
60.59                   0.117506        -126.027         0.994071         159.591         0.994071         159.591         0.119084         -94.885
60.6                    0.117673        -126.056         0.994057         159.557         0.994057         159.557         0.119271        -94.9255
60.61                    0.11784        -126.085         0.994043         159.523         0.994043         159.523         0.119457        -94.9659
60.62                   0.118007        -126.114         0.994029         159.489         0.994029         159.489         0.119644        -95.0063
60.63                   0.118175        -126.143         0.994014         159.455         0.994014         159.455          0.11983        -95.0466
60.64                   0.118342        -126.173         0.993999         159.421         0.993999         159.421         0.120015        -95.0868
60.65                    0.11851        -126.202         0.993984         159.387         0.993984         159.387         0.120201         -95.127
60.66                   0.118678        -126.231         0.993969         159.353         0.993969         159.353         0.120386        -95.1671
60.67                   0.118846        -126.261         0.993953          159.32         0.993953          159.32         0.120572        -95.2072
60.68                   0.119013         -126.29         0.993937         159.286         0.993937         159.286         0.120757        -95.2472
60.69                   0.119181         -126.32          0.99392         159.252          0.99392         159.252         0.120942        -95.2872
60.7                    0.119349        -126.349         0.993903         159.218         0.993903         159.218         0.121126        -95.3271
60.71                   0.119518        -126.379         0.993886         159.184         0.993886         159.184         0.121311        -95.3669
60.72                   0.119686        -126.409         0.993869          159.15         0.993869          159.15         0.121495        -95.4067
60.73                   0.119854        -126.438         0.993851         159.117         0.993851         159.117         0.121679        -95.4464
60.74                   0.120022        -126.468         0.993833         159.083         0.993833         159.083         0.121863        -95.4861
60.75                   0.120191        -126.498         0.993815         159.049         0.993815         159.049         0.122046        -95.5257
60.76                   0.120359        -126.528         0.993796         159.015         0.993796         159.015          0.12223        -95.5652
60.77                   0.120528        -126.558         0.993777         158.982         0.993777         158.982         0.122413        -95.6047
60.78                   0.120697        -126.588         0.993758         158.948         0.993758         158.948         0.122596        -95.6441
60.79                   0.120865        -126.618         0.993739         158.914         0.993739         158.914         0.122779        -95.6834
60.8                    0.121034        -126.648         0.993719         158.881         0.993719         158.881         0.122961        -95.7227
60.81                   0.121203        -126.678         0.993699         158.847         0.993699         158.847         0.123144         -95.762
60.82                   0.121372        -126.708         0.993679         158.813         0.993679         158.813         0.123326        -95.8011
60.83                   0.121541        -126.738         0.993658         158.779         0.993658         158.779         0.123508        -95.8403
60.84                   0.121711        -126.768         0.993638         158.746         0.993638         158.746          0.12369        -95.8793
60.85                    0.12188        -126.799         0.993617         158.712         0.993617         158.712         0.123871        -95.9183
60.86                   0.122049        -126.829         0.993595         158.678         0.993595         158.678         0.124052        -95.9572
60.87                   0.122219         -126.86         0.993574         158.645         0.993574         158.645         0.124233        -95.9961
60.88                   0.122388         -126.89         0.993552         158.611         0.993552         158.611         0.124414        -96.0349
60.89                   0.122558         -126.92          0.99353         158.578          0.99353         158.578         0.124595        -96.0736
60.9                    0.122727        -126.951         0.993508         158.544         0.993508         158.544         0.124775        -96.1123
60.91                   0.122897        -126.982         0.993485          158.51         0.993485          158.51         0.124955        -96.1509
60.92                   0.123067        -127.012         0.993462         158.477         0.993462         158.477         0.125135        -96.1894
60.93                   0.123237        -127.043         0.993439         158.443         0.993439         158.443         0.125315        -96.2279
60.94                   0.123407        -127.074         0.993416          158.41         0.993416          158.41         0.125494        -96.2663
60.95                   0.123577        -127.104         0.993392         158.376         0.993392         158.376         0.125673        -96.3047
60.96                   0.123747        -127.135         0.993369         158.343         0.993369         158.343         0.125852        -96.3429
60.97                   0.123917        -127.166         0.993345         158.309         0.993345         158.309         0.126031        -96.3812
60.98                   0.124088        -127.197          0.99332         158.275          0.99332         158.275         0.126209        -96.4193
60.99                   0.124258        -127.228         0.993296         158.242         0.993296         158.242         0.126388        -96.4574
61                      0.124429        -127.259         0.993271         158.208         0.993271         158.208         0.126565        -96.4954
61.01                   0.124599         -127.29         0.993247         158.175         0.993247         158.175         0.126743        -96.5334
61.02                    0.12477        -127.321         0.993221         158.141         0.993221         158.141         0.126921        -96.5712
61.03                   0.124941        -127.352         0.993196         158.108         0.993196         158.108         0.127098         -96.609
61.04                   0.125112        -127.384         0.993171         158.075         0.993171         158.075         0.127275        -96.6468
61.05                   0.125282        -127.415         0.993145         158.041         0.993145         158.041         0.127451        -96.6845
61.06                   0.125453        -127.446         0.993119         158.008         0.993119         158.008         0.127628        -96.7221
61.07                   0.125625        -127.478         0.993093         157.974         0.993093         157.974         0.127804        -96.7596
61.08                   0.125796        -127.509         0.993066         157.941         0.993066         157.941          0.12798         -96.797
61.09                   0.125967         -127.54          0.99304         157.907          0.99304         157.907         0.128155        -96.8344
61.1                    0.126138        -127.572         0.993013         157.874         0.993013         157.874         0.128331        -96.8717
61.11                    0.12631        -127.604         0.992986         157.841         0.992986         157.841         0.128506         -96.909
61.12                   0.126481        -127.635         0.992959         157.807         0.992959         157.807          0.12868        -96.9461
61.13                   0.126653        -127.667         0.992932         157.774         0.992932         157.774         0.128855        -96.9832
61.14                   0.126824        -127.698         0.992904          157.74         0.992904          157.74         0.129029        -97.0203
61.15                   0.126996         -127.73         0.992876         157.707         0.992876         157.707         0.129203        -97.0572
61.16                   0.127168        -127.762         0.992849         157.674         0.992849         157.674         0.129377        -97.0941
61.17                    0.12734        -127.794          0.99282          157.64          0.99282          157.64          0.12955        -97.1308
61.18                   0.127512        -127.826         0.992792         157.607         0.992792         157.607         0.129723        -97.1675
61.19                   0.127684        -127.858         0.992764         157.574         0.992764         157.574         0.129896        -97.2042
61.2                    0.127856         -127.89         0.992735          157.54         0.992735          157.54         0.130068        -97.2407
61.21                   0.128028        -127.922         0.992706         157.507         0.992706         157.507          0.13024        -97.2772
61.22                   0.128201        -127.954         0.992677         157.474         0.992677         157.474         0.130412        -97.3136
61.23                   0.128373        -127.986         0.992648         157.441         0.992648         157.441         0.130584        -97.3499
61.24                   0.128546        -128.018         0.992619         157.407         0.992619         157.407         0.130755        -97.3861
61.25                   0.128718         -128.05         0.992589         157.374         0.992589         157.374         0.130926        -97.4222
61.26                   0.128891        -128.083          0.99256         157.341          0.99256         157.341         0.131096        -97.4582
61.27                   0.129064        -128.115          0.99253         157.308          0.99253         157.308         0.131267        -97.4942
61.28                   0.129236        -128.147           0.9925         157.274           0.9925         157.274         0.131436        -97.5301
61.29                   0.129409         -128.18          0.99247         157.241          0.99247         157.241         0.131606        -97.5658
61.3                    0.129582        -128.212          0.99244         157.208          0.99244         157.208         0.131775        -97.6015
61.31                   0.129755        -128.245         0.992409         157.175         0.992409         157.175         0.131944        -97.6371
61.32                   0.129929        -128.277         0.992379         157.142         0.992379         157.142         0.132113        -97.6726
61.33                   0.130102         -128.31         0.992348         157.108         0.992348         157.108         0.132281         -97.708
61.34                   0.130275        -128.343         0.992317         157.075         0.992317         157.075         0.132449        -97.7433
61.35                   0.130449        -128.375         0.992286         157.042         0.992286         157.042         0.132617        -97.7785
61.36                   0.130622        -128.408         0.992255         157.009         0.992255         157.009         0.132784        -97.8137
61.37                   0.130796        -128.441         0.992224         156.976         0.992224         156.976         0.132951        -97.8487
61.38                    0.13097        -128.474         0.992192         156.943         0.992192         156.943         0.133118        -97.8836
61.39                   0.131143        -128.506         0.992161          156.91         0.992161          156.91         0.133284        -97.9184
61.4                    0.131317        -128.539         0.992129         156.877         0.992129         156.877          0.13345        -97.9531
61.41                   0.131491        -128.572         0.992097         156.843         0.992097         156.843         0.133615        -97.9877
61.42                   0.131665        -128.605         0.992065          156.81         0.992065          156.81          0.13378        -98.0222
61.43                   0.131839        -128.639         0.992033         156.777         0.992033         156.777         0.133945        -98.0566
61.44                   0.132013        -128.672         0.992001         156.744         0.992001         156.744         0.134109        -98.0908
61.45                   0.132188        -128.705         0.991969         156.711         0.991969         156.711         0.134273         -98.125
61.46                   0.132362        -128.738         0.991936         156.678         0.991936         156.678         0.134437         -98.159
61.47                   0.132537        -128.771         0.991904         156.645         0.991904         156.645           0.1346        -98.1929
61.48                   0.132711        -128.805         0.991871         156.612         0.991871         156.612         0.134763        -98.2267
61.49                   0.132886        -128.838         0.991838         156.579         0.991838         156.579         0.134925        -98.2604
61.5                    0.133061        -128.871         0.991805         156.546         0.991805         156.546         0.135088         -98.294
61.51                   0.133235        -128.905         0.991772         156.513         0.991772         156.513         0.135249        -98.3274
61.52                    0.13341        -128.938         0.991739          156.48         0.991739          156.48          0.13541        -98.3607
61.53                   0.133585        -128.972         0.991706         156.447         0.991706         156.447         0.135571        -98.3939
61.54                    0.13376        -129.006         0.991672         156.414         0.991672         156.414         0.135732        -98.4269
61.55                   0.133936        -129.039         0.991639         156.381         0.991639         156.381         0.135892        -98.4598
61.56                   0.134111        -129.073         0.991605         156.348         0.991605         156.348         0.136051        -98.4925
61.57                   0.134286        -129.107         0.991571         156.315         0.991571         156.315         0.136211        -98.5252
61.58                   0.134462        -129.141         0.991538         156.282         0.991538         156.282         0.136369        -98.5576
61.59                   0.134637        -129.174         0.991504         156.249         0.991504         156.249         0.136528          -98.59
61.6                    0.134813        -129.208          0.99147         156.216          0.99147         156.216         0.136685        -98.6221
61.61                   0.134989        -129.242         0.991436         156.183         0.991436         156.183         0.136843        -98.6542
61.62                   0.135165        -129.276         0.991401          156.15         0.991401          156.15            0.137         -98.686
61.63                    0.13534         -129.31         0.991367         156.118         0.991367         156.118         0.137157        -98.7177
61.64                   0.135516        -129.344         0.991333         156.085         0.991333         156.085         0.137313        -98.7493
61.65                   0.135693        -129.379         0.991298         156.052         0.991298         156.052         0.137468        -98.7807
61.66                   0.135869        -129.413         0.991264         156.019         0.991264         156.019         0.137624        -98.8119
61.67                   0.136045        -129.447         0.991229         155.986         0.991229         155.986         0.137778        -98.8429
61.68                   0.136221        -129.481         0.991194         155.953         0.991194         155.953         0.137933        -98.8738
61.69                   0.136398        -129.516         0.991159          155.92         0.991159          155.92         0.138086        -98.9044
61.7                    0.136575         -129.55         0.991124         155.887         0.991124         155.887          0.13824        -98.9349
61.71                   0.136751        -129.584         0.991089         155.855         0.991089         155.855         0.138393        -98.9652
61.72                   0.136928        -129.619         0.991054         155.822         0.991054         155.822         0.138545        -98.9954
61.73                   0.137105        -129.653         0.991019         155.789         0.991019         155.789         0.138697        -99.0253
61.74                   0.137282        -129.688         0.990984         155.756         0.990984         155.756         0.138848         -99.055
61.75                   0.137459        -129.722         0.990948         155.723         0.990948         155.723         0.138999        -99.0845
61.76                   0.137636        -129.757         0.990913         155.691         0.990913         155.691          0.13915        -99.1138
61.77                   0.137813        -129.792         0.990878         155.658         0.990878         155.658           0.1393        -99.1428
61.78                   0.137991        -129.827         0.990842         155.625         0.990842         155.625         0.139449        -99.1717
61.79                   0.138168        -129.861         0.990806         155.592         0.990806         155.592         0.139598        -99.2003
61.8                    0.138345        -129.896         0.990771          155.56         0.990771          155.56         0.139747        -99.2287
61.81                   0.138523        -129.931         0.990735         155.527         0.990735         155.527         0.139895        -99.2569
61.82                   0.138701        -129.966         0.990699         155.494         0.990699         155.494         0.140042        -99.2848
61.83                   0.138879        -130.001         0.990663         155.461         0.990663         155.461         0.140189        -99.3125
61.84                   0.139057        -130.036         0.990627         155.429         0.990627         155.429         0.140335        -99.3399
61.85                   0.139235        -130.071         0.990591         155.396         0.990591         155.396         0.140481         -99.367
61.86                   0.139413        -130.106         0.990555         155.363         0.990555         155.363         0.140627        -99.3939
61.87                   0.139591        -130.141         0.990519          155.33         0.990519          155.33         0.140772        -99.4205
61.88                   0.139769        -130.177         0.990483         155.298         0.990483         155.298         0.140916        -99.4468
61.89                   0.139948        -130.212         0.990446         155.265         0.990446         155.265          0.14106        -99.4728
61.9                    0.140126        -130.247          0.99041         155.232          0.99041         155.232         0.141203        -99.4986
61.91                   0.140305        -130.283         0.990374           155.2         0.990374           155.2         0.141346         -99.524
61.92                   0.140484        -130.318         0.990337         155.167         0.990337         155.167         0.141488        -99.5491
61.93                   0.140663        -130.354         0.990301         155.134         0.990301         155.134          0.14163        -99.5739
61.94                   0.140842        -130.389         0.990264         155.102         0.990264         155.102         0.141771        -99.5984
61.95                   0.141021        -130.425         0.990228         155.069         0.990228         155.069         0.141912        -99.6225
61.96                     0.1412         -130.46         0.990191         155.036         0.990191         155.036         0.142052        -99.6463
61.97                   0.141379        -130.496         0.990154         155.004         0.990154         155.004         0.142192        -99.6698