! TOUCHSTONE file generated by CST MICROWAVE STUDIO
! Date and time: Sat Feb 17 12:40:09 2024
! Project name: MUT_rotado.cst
! Header version: 2018
! Port assignment regex: !\s*Touchstone port\s*([0-9]+)\s*=\s*(CST MWS port|CST DS port)\s*([0-9]+|Zmin|Zmax)\s*\(\"(.*)\"\)(\s*mode\s*([0-9]+))?.*
! Touchstone port assignment:
! Touchstone port 1 = CST MWS port 1 ("")
! Touchstone port 2 = CST MWS port 2 ("")
# GHz S MA R 376.7
60                      0.111358        -109.418         0.993795         160.741         0.993903         160.755         0.111385        -109.143
60.01                   0.111547        -109.454         0.993767         160.707         0.993889         160.721         0.111571        -109.175
60.02                   0.111735         -109.49         0.993739         160.673         0.993874         160.687         0.111757        -109.208
60.03                   0.111923        -109.526         0.993711         160.639         0.993859         160.653         0.111943         -109.24
60.04                   0.112112        -109.563         0.993683         160.605         0.993844         160.619         0.112129        -109.273
60.05                     0.1123        -109.599         0.993656          160.57         0.993829         160.584         0.112314        -109.305
60.06                   0.112489        -109.635         0.993628         160.536         0.993814          160.55           0.1125        -109.338
60.07                   0.112677        -109.671           0.9936         160.502         0.993799         160.516         0.112686         -109.37
60.08                   0.112866        -109.707         0.993572         160.468         0.993784         160.482         0.112872        -109.403
60.09                   0.113054        -109.743         0.993544         160.434         0.993769         160.448         0.113058        -109.435
60.1                    0.113243        -109.779         0.993516         160.399         0.993753         160.414         0.113244        -109.468
60.11                   0.113432        -109.816         0.993488         160.365         0.993738         160.379          0.11343          -109.5
60.12                    0.11362        -109.852          0.99346         160.331         0.993722         160.345         0.113616        -109.533
60.13                   0.113809        -109.888         0.993432         160.297         0.993707         160.311         0.113802        -109.566
60.14                   0.113997        -109.924         0.993404         160.263         0.993691         160.277         0.113988        -109.598
60.15                   0.114186        -109.959         0.993376         160.228         0.993675         160.243         0.114174        -109.631
60.16                   0.114375        -109.995         0.993348         160.194          0.99366         160.209          0.11436        -109.664
60.17                   0.114563        -110.031         0.993321          160.16         0.993644         160.174         0.114546        -109.696
60.18                   0.114752        -110.067         0.993293         160.126         0.993628          160.14         0.114732        -109.729
60.19                    0.11494        -110.103         0.993265         160.092         0.993612         160.106         0.114918        -109.762
60.2                    0.115129        -110.139         0.993237         160.057         0.993596         160.072         0.115104        -109.794
60.21                   0.115318        -110.175         0.993209         160.023         0.993579         160.038          0.11529        -109.827
60.22                   0.115506        -110.211         0.993181         159.989         0.993563         160.003         0.115476         -109.86
60.23                   0.115695        -110.246         0.993153         159.955         0.993547         159.969         0.115662        -109.893
60.24                   0.115884        -110.282         0.993125         159.921          0.99353         159.935         0.115848        -109.925
60.25                   0.116072        -110.318         0.993097         159.886         0.993514         159.901         0.116034        -109.958
60.26                   0.116261        -110.353         0.993069         159.852         0.993497         159.867          0.11622        -109.991
60.27                    0.11645        -110.389         0.993041         159.818          0.99348         159.833         0.116406        -110.024
60.28                   0.116639        -110.425         0.993013         159.784         0.993464         159.798         0.116592        -110.057
60.29                   0.116827         -110.46         0.992985          159.75         0.993447         159.764         0.116778         -110.09
60.3                    0.117016        -110.496         0.992957         159.715          0.99343          159.73         0.116964        -110.123
60.31                   0.117205        -110.532         0.992929         159.681         0.993413         159.696          0.11715        -110.155
60.32                   0.117393        -110.567         0.992901         159.647         0.993396         159.662         0.117337        -110.188
60.33                   0.117582        -110.603         0.992873         159.613         0.993378         159.627         0.117523        -110.221
60.34                   0.117771        -110.638         0.992845         159.579         0.993361         159.593         0.117709        -110.254
60.35                    0.11796        -110.674         0.992816         159.545         0.993344         159.559         0.117895        -110.287
60.36                   0.118148        -110.709         0.992788          159.51         0.993326         159.525         0.118081         -110.32
60.37                   0.118337        -110.745          0.99276         159.476         0.993309         159.491         0.118267        -110.353
60.38                   0.118526         -110.78         0.992732         159.442         0.993291         159.456         0.118453        -110.386
60.39                   0.118715        -110.816         0.992704         159.408         0.993274         159.422          0.11864        -110.419
60.4                    0.118904        -110.851         0.992676         159.374         0.993256         159.388         0.118826        -110.452
60.41                   0.119092        -110.886         0.992648         159.339         0.993238         159.354         0.119012        -110.485
60.42                   0.119281        -110.922          0.99262         159.305          0.99322          159.32         0.119198        -110.518
60.43                    0.11947        -110.957         0.992592         159.271         0.993202         159.286         0.119384        -110.551
60.44                   0.119659        -110.992         0.992564         159.237         0.993184         159.251          0.11957        -110.584
60.45                   0.119848        -111.028         0.992536         159.203         0.993166         159.217         0.119757        -110.618
60.46                   0.120036        -111.063         0.992508         159.168         0.993148         159.183         0.119943        -110.651
60.47                   0.120225        -111.098         0.992479         159.134          0.99313         159.149         0.120129        -110.684
60.48                   0.120414        -111.134         0.992451           159.1         0.993111         159.115         0.120315        -110.717
60.49                   0.120603        -111.169         0.992423         159.066         0.993093          159.08         0.120501         -110.75
60.5                    0.120791        -111.204         0.992395         159.032         0.993074         159.046         0.120688        -110.783
60.51                    0.12098        -111.239         0.992367         158.998         0.993056         159.012         0.120874        -110.817
60.52                   0.121169        -111.274         0.992339         158.963         0.993037         158.978          0.12106         -110.85
60.53                   0.121358        -111.309         0.992311         158.929         0.993018         158.943         0.121246        -110.883
60.54                   0.121547        -111.345         0.992282         158.895         0.992999         158.909         0.121432        -110.916
60.55                   0.121736         -111.38         0.992254         158.861         0.992981         158.875         0.121619        -110.949
60.56                   0.121924        -111.415         0.992226         158.827         0.992962         158.841         0.121805        -110.983
60.57                   0.122113         -111.45         0.992198         158.792         0.992942         158.807         0.121991        -111.016
60.58                   0.122302        -111.485          0.99217         158.758         0.992923         158.772         0.122177        -111.049
60.59                   0.122491         -111.52         0.992141         158.724         0.992904         158.738         0.122363        -111.083
60.6                     0.12268        -111.555         0.992113          158.69         0.992885         158.704          0.12255        -111.116
60.61                   0.122868         -111.59         0.992085         158.656         0.992865          158.67         0.122736        -111.149
60.62                   0.123057        -111.625         0.992057         158.622         0.992846         158.636         0.122922        -111.183
60.63                   0.123246         -111.66         0.992029         158.587         0.992826         158.601         0.123108        -111.216
60.64                   0.123435        -111.695            0.992         158.553         0.992807         158.567         0.123295        -111.249
60.65                   0.123624         -111.73         0.991972         158.519         0.992787         158.533         0.123481        -111.283
60.66                   0.123812        -111.765         0.991944         158.485         0.992767         158.499         0.123667        -111.316
60.67                   0.124001        -111.799         0.991916         158.451         0.992747         158.465         0.123853         -111.35
60.68                    0.12419        -111.834         0.991888         158.417         0.992728          158.43         0.124039        -111.383
60.69                   0.124379        -111.869         0.991859         158.382         0.992708         158.396         0.124226        -111.416
60.7                    0.124567        -111.904         0.991831         158.348         0.992687         158.362         0.124412         -111.45
60.71                   0.124756        -111.939         0.991803         158.314         0.992667         158.328         0.124598        -111.483
60.72                   0.124945        -111.974         0.991775          158.28         0.992647         158.294         0.124784        -111.517
60.73                   0.125134        -112.008         0.991746         158.246         0.992627         158.259         0.124971         -111.55
60.74                   0.125322        -112.043         0.991718         158.212         0.992606         158.225         0.125157        -111.584
60.75                   0.125511        -112.078          0.99169         158.177         0.992586         158.191         0.125343        -111.617
60.76                     0.1257        -112.113         0.991661         158.143         0.992565         158.157         0.125529        -111.651
60.77                   0.125889        -112.147         0.991633         158.109         0.992545         158.123         0.125715        -111.684
60.78                   0.126077        -112.182         0.991605         158.075         0.992524         158.088         0.125902        -111.718
60.79                   0.126266        -112.217         0.991577         158.041         0.992503         158.054         0.126088        -111.752
60.8                    0.126455        -112.251         0.991548         158.007         0.992482          158.02         0.126274        -111.785
60.81                   0.126644        -112.286          0.99152         157.972         0.992461         157.986          0.12646        -111.819
60.82                   0.126832        -112.321         0.991492         157.938          0.99244         157.951         0.126646        -111.852
60.83                   0.127021        -112.355         0.991463         157.904         0.992419         157.917         0.126833        -111.886
60.84                    0.12721         -112.39         0.991435          157.87         0.992398         157.883         0.127019         -111.92
60.85                   0.127398        -112.424         0.991407         157.836         0.992377         157.849         0.127205        -111.953
60.86                   0.127587        -112.459         0.991378         157.802         0.992356         157.815         0.127391        -111.987
60.87                   0.127776        -112.494          0.99135         157.768         0.992334          157.78         0.127577        -112.021
60.88                   0.127964        -112.528         0.991322         157.733         0.992313         157.746         0.127764        -112.054
60.89                   0.128153        -112.563         0.991293         157.699         0.992291         157.712          0.12795        -112.088
60.9                    0.128342        -112.597         0.991265         157.665          0.99227         157.678         0.128136        -112.122
60.91                    0.12853        -112.632         0.991237         157.631         0.992248         157.644         0.128322        -112.155
60.92                   0.128719        -112.666         0.991208         157.597         0.992226         157.609         0.128508        -112.189
60.93                   0.128907        -112.701          0.99118         157.563         0.992204         157.575         0.128694        -112.223
60.94                   0.129096        -112.735         0.991152         157.528         0.992182         157.541         0.128881        -112.257
60.95                   0.129285        -112.769         0.991123         157.494         0.992161         157.507         0.129067         -112.29
60.96                   0.129473        -112.804         0.991095          157.46         0.992138         157.473         0.129253        -112.324
60.97                   0.129662        -112.838         0.991066         157.426         0.992116         157.438         0.129439        -112.358
60.98                    0.12985        -112.873         0.991038         157.392         0.992094         157.404         0.129625        -112.392
60.99                   0.130039        -112.907          0.99101         157.358         0.992072          157.37         0.129811        -112.426
61                      0.130227        -112.941         0.990981         157.324         0.992049         157.336         0.129997        -112.459
61.01                   0.130416        -112.976         0.990953         157.289         0.992027         157.301         0.130184        -112.493
61.02                   0.130604         -113.01         0.990924         157.255         0.992004         157.267          0.13037        -112.527
61.03                   0.130793        -113.044         0.990896         157.221         0.991982         157.233         0.130556        -112.561
61.04                   0.130981        -113.079         0.990868         157.187         0.991959         157.199         0.130742        -112.595
61.05                    0.13117        -113.113         0.990839         157.153         0.991936         157.165         0.130928        -112.629
61.06                   0.131358        -113.147         0.990811         157.119         0.991914          157.13         0.131114        -112.663
61.07                   0.131547        -113.182         0.990782         157.085         0.991891         157.096           0.1313        -112.697
61.08                   0.131735        -113.216         0.990754         157.051         0.991868         157.062         0.131486        -112.731
61.09                   0.131924         -113.25         0.990725         157.016         0.991845         157.028         0.131672        -112.764
61.1                    0.132112        -113.284         0.990697         156.982         0.991822         156.994         0.131858        -112.798
61.11                     0.1323        -113.318         0.990668         156.948         0.991799         156.959         0.132044        -112.832
61.12                   0.132489        -113.353          0.99064         156.914         0.991775         156.925          0.13223        -112.866
61.13                   0.132677        -113.387         0.990612          156.88         0.991752         156.891         0.132416          -112.9
61.14                   0.132865        -113.421         0.990583         156.846         0.991729         156.857         0.132602        -112.934
61.15                   0.133054        -113.455         0.990555         156.812         0.991705         156.823         0.132788        -112.968
61.16                   0.133242        -113.489         0.990526         156.777         0.991682         156.788         0.132974        -113.002
61.17                    0.13343        -113.523         0.990498         156.743         0.991658         156.754          0.13316        -113.036
61.18                   0.133619        -113.557         0.990469         156.709         0.991634          156.72         0.133346         -113.07
61.19                   0.133807        -113.592         0.990441         156.675          0.99161         156.686         0.133532        -113.104
61.2                    0.133995        -113.626         0.990412         156.641         0.991587         156.652         0.133718        -113.138
61.21                   0.134183         -113.66         0.990384         156.607         0.991563         156.617         0.133904        -113.173
61.22                   0.134371        -113.694         0.990355         156.573         0.991539         156.583          0.13409        -113.207
61.23                    0.13456        -113.728         0.990327         156.539         0.991515         156.549         0.134276        -113.241
61.24                   0.134748        -113.762         0.990298         156.505         0.991491         156.515         0.134462        -113.275
61.25                   0.134936        -113.796          0.99027          156.47         0.991466         156.481         0.134648        -113.309
61.26                   0.135124         -113.83         0.990241         156.436         0.991442         156.447         0.134834        -113.343
61.27                   0.135312        -113.864         0.990213         156.402         0.991418         156.412          0.13502        -113.377
61.28                     0.1355        -113.898         0.990184         156.368         0.991393         156.378         0.135206        -113.411
61.29                   0.135688        -113.932         0.990155         156.334         0.991369         156.344         0.135392        -113.445
61.3                    0.135876        -113.966         0.990127           156.3         0.991344          156.31         0.135577         -113.48
61.31                   0.136064            -114         0.990098         156.266          0.99132         156.276         0.135763        -113.514
61.32                   0.136252        -114.034          0.99007         156.232         0.991295         156.241         0.135949        -113.548
61.33                    0.13644        -114.068         0.990041         156.198          0.99127         156.207         0.136135        -113.582
61.34                   0.136628        -114.101         0.990013         156.163         0.991246         156.173         0.136321        -113.616
61.35                   0.136816        -114.135         0.989984         156.129         0.991221         156.139         0.136507         -113.65
61.36                   0.137004        -114.169         0.989956         156.095         0.991196         156.105         0.136692        -113.685
61.37                   0.137192        -114.203         0.989927         156.061         0.991171         156.071         0.136878        -113.719
61.38                    0.13738        -114.237         0.989898         156.027         0.991146         156.036         0.137064        -113.753
61.39                   0.137568        -114.271          0.98987         155.993          0.99112         156.002          0.13725        -113.787
61.4                    0.137755        -114.305         0.989841         155.959         0.991095         155.968         0.137435        -113.822
61.41                   0.137943        -114.338         0.989813         155.925          0.99107         155.934         0.137621        -113.856
61.42                   0.138131        -114.372         0.989784         155.891         0.991044           155.9         0.137807         -113.89
61.43                   0.138319        -114.406         0.989755         155.857         0.991019         155.865         0.137992        -113.924
61.44                   0.138507         -114.44         0.989727         155.822         0.990994         155.831         0.138178        -113.959
61.45                   0.138694        -114.474         0.989698         155.788         0.990968         155.797         0.138364        -113.993
61.46                   0.138882        -114.507          0.98967         155.754         0.990942         155.763         0.138549        -114.027
61.47                    0.13907        -114.541         0.989641          155.72         0.990917         155.729         0.138735        -114.062
61.48                   0.139257        -114.575         0.989612         155.686         0.990891         155.695         0.138921        -114.096
61.49                   0.139445        -114.609         0.989584         155.652         0.990865          155.66         0.139106         -114.13
61.5                    0.139632        -114.642         0.989555         155.618         0.990839         155.626         0.139292        -114.165
61.51                    0.13982        -114.676         0.989526         155.584         0.990813         155.592         0.139477        -114.199
61.52                   0.140007         -114.71         0.989498          155.55         0.990787         155.558         0.139663        -114.233
61.53                   0.140195        -114.744         0.989469         155.516         0.990761         155.524         0.139849        -114.268
61.54                   0.140382        -114.777         0.989441         155.482         0.990735          155.49         0.140034        -114.302
61.55                    0.14057        -114.811         0.989412         155.448         0.990708         155.455          0.14022        -114.337
61.56                   0.140757        -114.845         0.989383         155.413         0.990682         155.421         0.140405        -114.371
61.57                   0.140945        -114.878         0.989355         155.379         0.990656         155.387         0.140591        -114.405
61.58                   0.141132        -114.912         0.989326         155.345         0.990629         155.353         0.140776         -114.44
61.59                   0.141319        -114.946         0.989297         155.311         0.990603         155.319         0.140961        -114.474
61.6                    0.141507        -114.979         0.989269         155.277         0.990576         155.285         0.141147        -114.509
61.61                   0.141694        -115.013          0.98924         155.243          0.99055         155.251         0.141332        -114.543
61.62                   0.141881        -115.046         0.989211         155.209         0.990523         155.216         0.141518        -114.578
61.63                   0.142068         -115.08         0.989183         155.175         0.990496         155.182         0.141703        -114.612
61.64                   0.142256        -115.114         0.989154         155.141         0.990469         155.148         0.141888        -114.647
61.65                   0.142443        -115.147         0.989125         155.107         0.990442         155.114         0.142074        -114.681
61.66                    0.14263        -115.181         0.989096         155.073         0.990415          155.08         0.142259        -114.715
61.67                   0.142817        -115.214         0.989068         155.039         0.990388         155.046         0.142444         -114.75
61.68                   0.143004        -115.248         0.989039         155.005         0.990361         155.012          0.14263        -114.784
61.69                   0.143191        -115.281          0.98901         154.971         0.990334         154.977         0.142815        -114.819
61.7                    0.143378        -115.315         0.988982         154.937         0.990307         154.943            0.143        -114.853
61.71                   0.143565        -115.348         0.988953         154.902          0.99028         154.909         0.143186        -114.888
61.72                   0.143752        -115.382         0.988924         154.868         0.990252         154.875         0.143371        -114.923
61.73                   0.143939        -115.415         0.988895         154.834         0.990225         154.841         0.143556        -114.957
61.74                   0.144126        -115.449         0.988867           154.8         0.990197         154.807         0.143741        -114.992
61.75                   0.144313        -115.482         0.988838         154.766          0.99017         154.773         0.143926        -115.026
61.76                   0.144499        -115.516         0.988809         154.732         0.990142         154.739         0.144111        -115.061
61.77                   0.144686        -115.549          0.98878         154.698         0.990115         154.704         0.144297        -115.095
61.78                   0.144873        -115.583         0.988752         154.664         0.990087          154.67         0.144482         -115.13
61.79                    0.14506        -115.616         0.988723          154.63         0.990059         154.636         0.144667        -115.164
61.8                    0.145246         -115.65         0.988694         154.596         0.990031         154.602         0.144852        -115.199
61.81                   0.145433        -115.683         0.988665         154.562         0.990003         154.568         0.145037        -115.234
61.82                    0.14562        -115.716         0.988637         154.528         0.989975         154.534         0.145222        -115.268
61.83                   0.145806         -115.75         0.988608         154.494         0.989947           154.5         0.145407        -115.303
61.84                   0.145993        -115.783         0.988579          154.46         0.989919         154.466         0.145592        -115.338
61.85                   0.146179        -115.817          0.98855         154.426         0.989891         154.431         0.145777        -115.372
61.86                   0.146366         -115.85         0.988522         154.392         0.989863         154.397         0.145962        -115.407
61.87                   0.146552        -115.883         0.988493         154.358         0.989835         154.363         0.146147        -115.441
61.88                   0.146738        -115.917         0.988464         154.324         0.989806         154.329         0.146332        -115.476
61.89                   0.146925         -115.95         0.988435          154.29         0.989778         154.295         0.146516        -115.511
61.9                    0.147111        -115.983         0.988406         154.256         0.989749         154.261         0.146701        -115.545
61.91                   0.147297        -116.017         0.988378         154.222         0.989721         154.227         0.146886         -115.58
61.92                   0.147484         -116.05         0.988349         154.188         0.989692         154.193         0.147071        -115.615
61.93                    0.14767        -116.083          0.98832         154.154         0.989664         154.159         0.147256        -115.649
61.94                   0.147856        -116.117         0.988291          154.12         0.989635         154.125          0.14744        -115.684
61.95                   0.148042         -116.15         0.988262         154.086         0.989606          154.09         0.147625        -115.719
61.96                   0.148228        -116.183         0.988234         154.052         0.989578         154.056          0.14781        -115.753
61.97                   0.148414        -116.217         0.988205         154.018         0.989549         154.022         0.147995        -115.788