! TOUCHSTONE file generated by CST MICROWAVE STUDIO
! Date and time: Thu Feb 22 13:10:59 2024
! Project name: material_desal.cst
! Header version: 2018
! Port assignment regex: !\s*Touchstone port\s*([0-9]+)\s*=\s*(CST MWS port|CST DS port)\s*([0-9]+|Zmin|Zmax)\s*\(\"(.*)\"\)(\s*mode\s*([0-9]+))?.*
! Touchstone port assignment:
! Touchstone port 1 = CST MWS port 1 ("")
! Touchstone port 2 = CST MWS port 2 ("")
# GHz S MA R 376.7
60                      0.558037        -177.621         0.711824          101.68         0.711792         101.687         0.558306        -177.669
60.01                   0.561301        -178.169         0.707135         101.392         0.707106         101.399         0.561513          -178.2
60.02                   0.564583        -178.724         0.702326         101.104           0.7023          101.11         0.564742        -178.739
60.03                   0.567881        -179.288         0.697396         100.816         0.697373         100.821         0.567994        -179.286
60.04                   0.571194         -179.86         0.692342         100.528         0.692321         100.532         0.571266        -179.842
60.05                    0.57452         179.559          0.68716         100.239         0.687141         100.242         0.574558         179.594
60.06                   0.577859         178.971         0.681849         99.9514         0.681831         99.9536         0.577868         179.021
60.07                   0.581208         178.373         0.676404         99.6642         0.676388         99.6654         0.581195         178.439
60.08                   0.584567         177.767         0.670824          99.378         0.670809         99.3782         0.584538         177.848
60.09                   0.587932         177.152         0.665106         99.0931         0.665091         99.0924         0.587893         177.247
60.1                    0.591304         176.528         0.659247           98.81         0.659232         98.8083         0.591261         176.637
60.11                   0.594679         175.895         0.653244         98.5292         0.653229         98.5265         0.594637         176.018
60.12                   0.598056         175.253         0.647096         98.2511          0.64708         98.2474         0.598022         175.389
60.13                   0.601432         174.602         0.640798         97.9762         0.640781         97.9715         0.601411          174.75
60.14                   0.604805         173.941          0.63435         97.7052         0.634332         97.6995         0.604803         174.101
60.15                   0.608173         173.271          0.62775         97.4386         0.627729         97.4319         0.608195         173.442
60.16                   0.611533         172.591         0.620994         97.1772         0.620971         97.1695         0.611584         172.772
60.17                   0.614883         171.901         0.614082         96.9217         0.614057          96.913         0.614968         172.093
60.18                   0.618219         171.202         0.607013         96.6729         0.606984         96.6633         0.618342         171.402
60.19                   0.621538         170.493         0.599784         96.4319         0.599751         96.4213         0.621704         170.701
60.2                    0.624838         169.774         0.592395         96.1995         0.592358         96.1879          0.62505         169.989
60.21                   0.628115         169.044         0.584846         95.9769         0.584804         95.9644         0.628376         169.267
60.22                   0.631366         168.305         0.577137         95.7653          0.57709         95.7518         0.631678         168.533
60.23                   0.634586         167.555         0.569268         95.5659         0.569214         95.5515         0.634953         167.788
60.24                   0.637772         166.796         0.561239         95.3803          0.56118          95.365         0.638195         167.032
60.25                    0.64092         166.025         0.553053         95.2099         0.552987         95.1937           0.6414         166.265
60.26                   0.644026         165.245         0.544712         95.0564         0.544638         95.0395         0.644564         165.486
60.27                   0.647086         164.454         0.536218         94.9218         0.536136         94.9041         0.647681         164.696
60.28                   0.650095         163.653         0.527575         94.8081         0.527485         94.7896         0.650746         163.895
60.29                   0.653049         162.842         0.518787         94.7174         0.518689         94.6983         0.653753         163.082
60.3                    0.655942          162.02         0.509861         94.6522         0.509753         94.6325         0.656698         162.258
60.31                    0.65877         161.188         0.500802          94.615         0.500685          94.595         0.659574         161.422
60.32                   0.661528         160.346         0.491619         94.6089         0.491493         94.5885         0.662375         160.575
60.33                   0.664211         159.494         0.482321         94.6368         0.482184         94.6162         0.665096         159.716
60.34                   0.666813         158.631         0.472918         94.7022         0.472771         94.6816          0.66773         158.846
60.35                    0.66933         157.759         0.463422         94.8088         0.463265         94.7883         0.670271         157.964
60.36                   0.671755         156.876         0.453847         94.9605         0.453681         94.9403         0.672713         157.071
60.37                   0.674083         155.984          0.44421         95.1616         0.444033          95.142          0.67505         156.167
60.38                   0.676309         155.082         0.434527         95.4168         0.434342          95.398         0.677276         155.252
60.39                   0.678427         154.171         0.424819          95.731         0.424626         95.7134         0.679386         154.325
60.4                    0.680432         153.251         0.415108         96.1097         0.414909         96.0936         0.681374         153.387
60.41                   0.682317         152.321         0.405421         96.5585         0.405216         96.5442         0.683236         152.438
60.42                   0.684078         151.383         0.395785         97.0835         0.395577         97.0713          0.68497         151.479
60.43                   0.685709         150.437         0.386232         97.6911         0.386024         97.6813         0.686573         150.508
60.44                   0.687205         149.482         0.376797         98.3879         0.376592         98.3808         0.688046         149.527
60.45                    0.68856          148.52         0.367519         99.1808         0.367322         99.1766         0.689389         148.536
60.46                    0.68977          147.55         0.358443         100.077         0.358256         100.075         0.690608         147.536
60.47                   0.690831         146.573         0.349617         101.082         0.349445         101.084         0.691707         146.527
60.48                   0.691737          145.59         0.341094         102.204         0.340941         102.208          0.69269         145.512
60.49                   0.692485           144.6         0.332935         103.447         0.332804         103.453         0.693558         144.491
60.5                    0.693072         143.605         0.325205         104.817         0.325098         104.823         0.694305         143.468
60.51                   0.693493         142.604         0.317977         106.315          0.31789          106.32         0.694917         142.445
60.52                   0.693747         141.598         0.311327         107.941         0.311256         107.944         0.695369         141.423
60.53                   0.693831         140.588         0.305334          109.69         0.305269         109.691         0.695629         140.405
60.54                   0.693744         139.574         0.300073         111.553         0.300002         111.551         0.695671         139.389
60.55                   0.693485         138.557         0.295607         113.514         0.295521         113.511         0.695472         138.376
60.56                   0.693053         137.537         0.291981         115.553         0.291876         115.553         0.695021         137.365
60.57                   0.692448         136.514         0.289206         117.645         0.289094         117.652         0.694317         136.355
60.58                   0.691668         135.488         0.287271         119.768         0.287175         119.784         0.693364         135.346
60.59                   0.690713          134.46         0.286142         121.901          0.28609         121.925         0.692171         134.337
60.6                    0.689579         133.429         0.285779         124.027         0.285797         124.054         0.690749          133.33
60.61                   0.688257         132.396          0.28615         126.133         0.286244         126.157         0.689107         132.325
60.62                   0.686731         131.358         0.287229         128.207         0.287392          128.22         0.687256         131.323
60.63                   0.684972         130.317         0.289002         130.237         0.289208         130.235         0.685206         130.325
60.64                   0.682934         129.273         0.291451         132.211         0.291671         132.191         0.682966         129.332
60.65                   0.680559         128.229         0.294556         134.115         0.294759         134.079         0.680546         128.347
60.66                   0.677791         127.192         0.298286         135.937         0.298448         135.887         0.677954         127.369
60.67                   0.674615         126.173           0.3026         137.665         0.302706         137.605         0.675203         126.402
60.68                   0.671096         125.183          0.30745         139.292         0.307489         139.226         0.672303         125.446
60.69                   0.667373         124.232         0.312778         140.809         0.312747          140.74         0.669267         124.503
60.7                    0.663601          123.32         0.318519         142.213          0.31842         142.145         0.666109         123.575
60.71                   0.659887         122.441         0.324606         143.501         0.324443         143.436         0.662846         122.664
60.72                   0.656272         121.589         0.330965         144.674         0.330745         144.613         0.659496         121.772
60.73                   0.652754         120.759         0.337522         145.733         0.337252         145.678          0.65608         120.902
60.74                   0.649318         119.951         0.344198         146.681         0.343887         146.633         0.652625         120.054
60.75                   0.645955         119.165         0.350913         147.522         0.350569         147.483         0.649159         119.234
60.76                    0.64267         118.405         0.357583         148.263         0.357213         148.231         0.645719         118.443
60.77                   0.639482         117.673         0.364116         148.908          0.36373         148.884         0.642347         117.684
60.78                   0.636431         116.975         0.370417         149.465         0.370022         149.449         0.639097         116.962
60.79                   0.633572         116.314         0.376379         149.941         0.375984         149.933         0.636036         116.281
60.8                     0.63098         115.698         0.381881         150.346         0.381494         150.345         0.633249         115.646
60.81                   0.628759          115.13         0.386785         150.688         0.386414         150.695         0.630844         115.061
60.82                   0.627046         114.617         0.390926         150.983         0.390583         150.997         0.628966         114.531
60.83                   0.626026         114.165         0.394108         151.245         0.393802         151.267         0.627807         114.063
60.84                   0.625952         113.778          0.39609         151.501         0.395834         151.529         0.627625          113.66
60.85                   0.627168         113.458         0.396575         151.784         0.396383          151.82         0.628778         113.325
60.86                    0.63016         113.202         0.395204         152.152         0.395092         152.195         0.631761         113.054
60.87                   0.635613         112.991          0.39156         152.697         0.391549         152.747         0.637265         112.831
60.88                   0.644516         112.786          0.38523         153.579          0.38534         153.633         0.646249          112.62
60.89                   0.658253         112.505         0.376011         155.075          0.37626          155.13         0.659996         112.341
60.9                    0.678482         112.007         0.364539         157.663         0.364922          157.71         0.680077         111.839
60.91                   0.706604         111.025         0.353881         162.064         0.354337         162.087         0.707931          110.84
60.92                   0.742469         109.132         0.352607         168.888         0.352956         168.874         0.743462         108.918
60.93                   0.781367         105.824         0.376202         177.146         0.376173         177.118         0.781921         105.582
60.94                   0.810698         100.889         0.435742        -176.838         0.435271         -176.83          0.81069         100.633
60.95                   0.814324         94.9261         0.518323        -175.866         0.517716        -175.819         0.813787         94.6797
60.96                   0.787819         89.2485         0.595221        -178.806         0.594782         -178.76         0.787011         89.0297
60.97                   0.743536         84.8922         0.649638         176.871         0.649441         176.888         0.742736         84.7053
60.98                   0.696658          82.032         0.682519         172.712         0.682526         172.702         0.696002         81.8731
60.99                   0.655216         80.3159         0.701231         169.216         0.701384         169.188         0.654728         80.1798
61                        0.6211         79.3189         0.712056         166.394         0.712295         166.359          0.62076         79.2014
61.01                   0.593557         78.7247         0.718829         164.124         0.719103         164.089         0.593334          78.623
61.02                   0.571204         78.3361         0.723618         162.275         0.723893         162.243         0.571071         78.2482
61.03                   0.552765         78.0404         0.727488          160.74         0.727746         160.712         0.552701         77.9648
61.04                   0.537241         77.7764         0.730974         159.441         0.731205         159.417         0.537229         77.7118
61.05                   0.523895         77.5123         0.734339         158.319         0.734542           158.3         0.523923         77.4577
61.06                   0.512192         77.2328         0.737706         157.333         0.737881         157.318         0.512251         77.1873
61.07                   0.501748         76.9315         0.741127         156.453         0.741278         156.441         0.501831         76.8941
61.08                   0.492281         76.6064         0.744618         155.656         0.744747         155.646         0.492383         76.5765
61.09                   0.483586         76.2584         0.748176         154.925         0.748286         154.917         0.483704         76.2351
61.1                    0.475511         75.8893          0.75179         154.247         0.751885         154.242         0.475643          75.872
61.11                   0.467941         75.5013         0.755446         153.613         0.755527         153.609         0.468085         75.4894
61.12                    0.46079          75.097         0.759128         153.016         0.759199         153.013         0.460945         75.0899
61.13                   0.453991         74.6786         0.762823         152.449         0.762886         152.447         0.454157         74.6758
61.14                   0.447492         74.2483         0.766516         151.907         0.766573         151.907         0.447668         74.2493
61.15                   0.441254          73.808         0.770198         151.388         0.770249         151.389         0.441439         73.8124
61.16                   0.435243         73.3595         0.773856         150.888         0.773904          150.89         0.435437         73.3668
61.17                   0.429433         72.9044         0.777484         150.405         0.777529         150.407         0.429637         72.9142
61.18                   0.423805         72.4439         0.781072         149.936         0.781117         149.939         0.424018         72.4559
61.19                   0.418342         71.9792         0.784616         149.481          0.78466         149.484         0.418563         71.9931
61.2                    0.413028         71.5113          0.78811         149.037         0.788154         149.041         0.413258         71.5268
61.21                   0.407853         71.0411         0.791549         148.604         0.791594         148.609         0.408092         71.0579
61.22                   0.402808         70.5693         0.794931         148.181         0.794977         148.186         0.403055         70.5872
61.23                   0.397883         70.0966         0.798252         147.767           0.7983         147.772         0.398139         70.1154
61.24                   0.393073         69.6236         0.801511         147.361          0.80156         147.366         0.393337          69.643
61.25                    0.38837         69.1506         0.804705         146.962         0.804756         146.968         0.388643         69.1705
61.26                   0.383771         68.6782         0.807833         146.571         0.807887         146.576         0.384051         68.6983
61.27                    0.37927         68.2065         0.810896         146.187         0.810952         146.192         0.379557         68.2268
61.28                   0.374863          67.736         0.813891         145.808          0.81395         145.814         0.375158         67.7563
61.29                   0.370548         67.2669         0.816819         145.436          0.81688         145.441          0.37085         67.2871
61.3                    0.366321         66.7993         0.819679         145.069         0.819743         145.075         0.366629         66.8193
61.31                   0.362179         66.3335         0.822473         144.708         0.822539         144.713         0.362493         66.3532
61.32                   0.358119         65.8694         0.825199         144.352         0.825269         144.357          0.35844         65.8888
61.33                    0.35414         65.4073          0.82786         144.001         0.827931         144.006         0.354466         65.4264
61.34                   0.350239         64.9473         0.830454         143.654         0.830528         143.659         0.350571         64.9659
61.35                   0.346414         64.4893         0.832984         143.312          0.83306         143.317         0.346751         64.5075
61.36                   0.342664         64.0334         0.835449         142.975         0.835528         142.979         0.343005         64.0512
61.37                   0.338987         63.5795         0.837851         142.641         0.837932         142.645         0.339332          63.597
61.38                    0.33538         63.1278          0.84019         142.312         0.840273         142.316          0.33573         63.1449
61.39                   0.331844         62.6782         0.842468         141.986         0.842552          141.99         0.332197          62.695
61.4                    0.328375         62.2306         0.844684         141.664          0.84477         141.668         0.328731         62.2471
61.41                   0.324974          61.785         0.846841         141.346         0.846928          141.35         0.325333         61.8014
61.42                   0.321638         61.3414         0.848939         141.032         0.849027         141.035            0.322         61.3576
61.43                   0.318367         60.8997         0.850979         140.721         0.851068         140.724          0.31873         60.9158
61.44                   0.315159         60.4597         0.852963         140.413         0.853052         140.416         0.315524         60.4759
61.45                   0.312013         60.0215          0.85489         140.109          0.85498         140.112          0.31238         60.0379
61.46                   0.308928          59.585         0.856762         139.808         0.856852          139.81         0.309296         59.6016
61.47                   0.305902           59.15          0.85858          139.51          0.85867         139.512         0.306272          59.167
61.48                   0.302936         58.7164         0.860344         139.215         0.860435         139.217         0.303307         58.7339
61.49                   0.300028         58.2842         0.862056         138.922         0.862146         138.924         0.300399         58.3023
61.5                    0.297177         57.8531         0.863717         138.633         0.863806         138.635         0.297548          57.872
61.51                   0.294381         57.4232         0.865327         138.347         0.865415         138.348         0.294753          57.443
61.52                   0.291641         56.9941         0.866886         138.063         0.866974         138.064         0.292014          57.015
61.53                   0.288956         56.5659         0.868397         137.782         0.868482         137.782         0.289328          56.588
61.54                   0.286324         56.1384         0.869858         137.503         0.869942         137.503         0.286696         56.1618
61.55                   0.283744         55.7114         0.871272         137.227         0.871354         137.227         0.284116         55.7363
61.56                   0.281216         55.2847         0.872638         136.953         0.872718         136.953         0.281588         55.3112
61.57                    0.27874         54.8581         0.873958         136.682         0.874035         136.681         0.279111         54.8865
61.58                   0.276313         54.4316         0.875231         136.412         0.875304         136.412         0.276684         54.4619
61.59                   0.273937         54.0048         0.876458         136.146         0.876528         136.145         0.274307         54.0372
61.6                    0.271609         53.5777         0.877639         135.881         0.877706          135.88         0.271979         53.6122
61.61                   0.269329         53.1498         0.878775         135.618         0.878837         135.617           0.2697         53.1868
61.62                   0.267097         52.7212         0.879866         135.358         0.879924         135.356         0.267468         52.7606
61.63                   0.264912         52.2914         0.880911         135.099         0.880964         135.097         0.265283         52.3334
61.64                   0.262773         51.8602         0.881912         134.843          0.88196         134.841         0.263145          51.905
61.65                    0.26068         51.4274         0.882867         134.588          0.88291         134.586         0.261052         51.4751
61.66                   0.258631         50.9926         0.883778         134.335         0.883814         134.333         0.259005         51.0433
61.67                   0.256627         50.5556         0.884643         134.084         0.884673         134.081         0.257003         50.6094
61.68                   0.254667         50.1159         0.885462         133.835         0.885486         133.831         0.255045         50.1729
61.69                    0.25275         49.6731         0.886235         133.587         0.886251         133.583         0.253131         49.7335
61.7                    0.250876         49.2269         0.886962         133.341          0.88697         133.337          0.25126         49.2908
61.71                   0.249044         48.7768         0.887641         133.096         0.887641         133.092         0.249432         48.8444
61.72                   0.247254         48.3223         0.888271         132.853         0.888263         132.849         0.247647         48.3937
61.73                   0.245504         47.8629         0.888852         132.612         0.888834         132.607         0.245904         47.9381
61.74                   0.243796         47.3979         0.889381         132.372         0.889355         132.367         0.244202         47.4772
61.75                   0.242128         46.9268         0.889859         132.133         0.889822         132.128         0.242542         47.0103
61.76                     0.2405         46.4487         0.890282         131.896         0.890235          131.89         0.240922         46.5366
61.77                   0.238911          45.963         0.890649          131.66         0.890591         131.654         0.239343         46.0554
61.78                   0.237361         45.4687         0.890957         131.425         0.890889         131.419         0.237804         45.5658
61.79                   0.235849         44.9648         0.891204         131.192         0.891124         131.185         0.236304         45.0669
61.8                    0.234375         44.4503         0.891387          130.96         0.891295         130.952         0.234843         44.5575
61.81                   0.232939          43.924         0.891501         130.729         0.891397         130.721         0.233421         44.0365
61.82                   0.231539         43.3844         0.891543           130.5         0.891426         130.491         0.232037         43.5024
61.83                   0.230175         42.8302         0.891507         130.271         0.891378         130.262          0.23069         42.9538
61.84                   0.228847         42.2594         0.891388         130.045         0.891247         130.034         0.229379         42.3889
61.85                   0.227552         41.6702          0.89118         129.819         0.891027         129.808         0.228103         41.8057
61.86                    0.22629         41.0603         0.890876         129.595          0.89071         129.584         0.226861          41.202
61.87                   0.225058         40.4271         0.890465         129.373         0.890288         129.361         0.225652         40.5751
61.88                   0.223855         39.7677          0.88994         129.152         0.889751         129.139         0.224472          39.922
61.89                   0.222678         39.0785         0.889287         128.934         0.889087          128.92          0.22332         39.2393
61.9                    0.221522         38.3556         0.888494         128.718         0.888284         128.704         0.222191         38.5229
61.91                   0.220383         37.5943         0.887544         128.506         0.887325          128.49         0.221081          37.768
61.92                   0.219254          36.789          0.88642         128.296         0.886192          128.28         0.219983         36.9691
61.93                   0.218127         35.9332           0.8851         128.092         0.884865         128.075         0.218889         36.1196
61.94                   0.216989         35.0191          0.88356         127.893         0.883319         127.875         0.217787         35.2116
61.95                   0.215825         34.0376          0.88177         127.702         0.881524         127.683         0.216662         34.2357
61.96                   0.214613         32.9775         0.879698          127.52         0.879449         127.501         0.215492         33.1809
61.97                   0.213324         31.8256         0.877306         127.351         0.877055         127.332         0.214248         32.0336