! TOUCHSTONE file generated by CST MICROWAVE STUDIO
! Date and time: Sat Feb 24 20:43:27 2024
! Project name: material_angular.cst
! Parameters = {Z=2.5; Y=2}
! Header version: 2018
! Port assignment regex: !\s*Touchstone port\s*([0-9]+)\s*=\s*(CST MWS port|CST DS port)\s*([0-9]+|Zmin|Zmax)\s*\(\"(.*)\"\)(\s*mode\s*([0-9]+))?.*
! Touchstone port assignment:
! Touchstone port 1 = CST MWS port 1 ("")
! Touchstone port 2 = CST MWS port 2 ("")
# GHz S MA R 376.7
60                     0.0906038        -105.059         0.995887          164.72         0.995887          164.72        0.0906038          -105.5
60.01                  0.0907363        -105.118         0.995875         164.661         0.995875         164.661        0.0907354         -105.56
60.02                   0.090861        -105.178         0.995864           164.6         0.995864           164.6        0.0908594        -105.622
60.03                   0.090976        -105.239         0.995854         164.539         0.995854         164.539         0.090974        -105.684
60.04                  0.0910794        -105.302         0.995844         164.476         0.995844         164.476        0.0910771        -105.748
60.05                  0.0911688        -105.365         0.995836         164.411         0.995836         164.411        0.0911663        -105.814
60.06                  0.0912415         -105.43          0.99583         164.345          0.99583         164.345        0.0912389        -105.881
60.07                   0.091294        -105.497         0.995825         164.277         0.995825         164.277        0.0912914         -105.95
60.08                  0.0913222        -105.566         0.995823         164.207         0.995823         164.207        0.0913197        -106.022
60.09                   0.091321        -105.637         0.995823         164.134         0.995823         164.134        0.0913186        -106.096
60.1                    0.091284        -105.711         0.995826         164.058         0.995826         164.058        0.0912818        -106.174
60.11                  0.0912032        -105.788         0.995833         163.979         0.995833         163.979        0.0912012        -106.255
60.12                  0.0910684        -105.868         0.995846         163.896         0.995846         163.896        0.0910665         -106.34
60.13                   0.090866        -105.953         0.995864         163.808         0.995864         163.808        0.0908644        -106.431
60.14                  0.0905786        -106.044          0.99589         163.714          0.99589         163.714        0.0905772        -106.528
60.15                  0.0901823        -106.142         0.995926         163.613         0.995926         163.613        0.0901811        -106.634
60.16                  0.0896441        -106.248         0.995974         163.502         0.995974         163.502        0.0896431        -106.749
60.17                  0.0889173        -106.365         0.996039         163.379         0.996039         163.379        0.0889166        -106.878
60.18                  0.0879337        -106.496         0.996127          163.24         0.996127          163.24        0.0879332        -107.024
60.19                  0.0865888        -106.648         0.996244         163.079         0.996244         163.079        0.0865886        -107.195
60.2                   0.0847157        -106.827         0.996405         162.885         0.996405         162.885        0.0847157        -107.402
60.21                  0.0820291         -107.05          0.99663         162.644          0.99663         162.644        0.0820293        -107.663
60.22                  0.0779996         -107.34         0.996953         162.323         0.996953         162.323        0.0780002        -108.013
60.23                  0.0715225        -107.749         0.997438          161.86         0.997438          161.86        0.0715234         -108.53
60.24                   0.059846        -108.389         0.998206         161.097         0.998206         161.097        0.0598475        -109.418
60.25                  0.0337028        -109.404         0.999428         159.502         0.999428         159.502        0.0337053        -111.596
60.26                   0.069262         62.6385         0.997581           153.5         0.997581           153.5        0.0692568         64.3799
60.27                   0.455686        -85.6499         0.890141        -175.515         0.890141        -175.515         0.455686        -85.3808
60.28                   0.197974        -101.308         0.980207         168.693         0.980207         168.693         0.197972        -101.308
60.29                   0.159682        -103.586         0.987169         166.357         0.987169         166.357         0.159681          -103.7
60.3                    0.144778        -104.527         0.989465         165.385         0.989465         165.385         0.144777        -104.704
60.31                   0.137098        -105.063         0.990558         164.829         0.990558         164.829         0.137098         -105.28
60.32                   0.132596        -105.425          0.99117         164.453          0.99117         164.453         0.132596        -105.669
60.33                   0.129783        -105.697         0.991542         164.171         0.991542         164.171         0.129783        -105.961
60.34                   0.127985        -105.918         0.991776         163.943         0.991776         163.943         0.127985        -106.196
60.35                   0.126853        -106.105         0.991922          163.75         0.991922          163.75         0.126853        -106.395
60.36                    0.12619        -106.273         0.992006         163.578         0.992006         163.578          0.12619        -106.572
60.37                   0.125876        -106.426         0.992046          163.42         0.992046          163.42         0.125876        -106.733
60.38                   0.125838        -106.571         0.992051         163.272         0.992051         163.272         0.125838        -106.884
60.39                   0.126027         -106.71         0.992027         163.131         0.992027         163.131         0.126027        -107.028
60.4                    0.126412        -106.847         0.991978         162.992         0.991978         162.992         0.126412        -107.169
60.41                   0.126974        -106.981         0.991906         162.856         0.991906         162.856         0.126974        -107.307
60.42                   0.127701        -107.117         0.991813         162.719         0.991813         162.719         0.127701        -107.445
60.43                    0.12859        -107.254         0.991698          162.58         0.991698          162.58          0.12859        -107.585
60.44                    0.12964        -107.395         0.991561         162.439         0.991561         162.439          0.12964        -107.728
60.45                   0.130857         -107.54         0.991401         162.293         0.991401         162.293         0.130857        -107.874
60.46                   0.132251        -107.691         0.991216         162.141         0.991216         162.141         0.132251        -108.027
60.47                   0.133838         -107.85         0.991003         161.982         0.991003         161.982         0.133837        -108.187
60.48                   0.135636        -108.018         0.990759         161.813         0.990759         161.813         0.135636        -108.355
60.49                   0.137674        -108.197         0.990478         161.634         0.990478         161.634         0.137673        -108.535
60.5                    0.139986         -108.39         0.990154         161.441         0.990154         161.441         0.139985        -108.728
60.51                   0.142617          -108.6         0.989778         161.231         0.989778         161.231         0.142617        -108.937
60.52                   0.145626         -108.83          0.98934         161.001          0.98934         161.001         0.145625        -109.166
60.53                   0.149089        -109.085         0.988823         160.747         0.988823         160.747         0.149088         -109.42
60.54                   0.153106        -109.371         0.988209         160.461         0.988209         160.461         0.153105        -109.705
60.55                   0.157813        -109.697         0.987468         160.136         0.987468         160.136         0.157812        -110.028
60.56                   0.163399        -110.074         0.986558         159.761         0.986558         159.761         0.163398        -110.401
60.57                   0.170127        -110.517         0.985419          159.32         0.985419          159.32         0.170126        -110.839
60.58                   0.178386         -111.05         0.983956         158.789         0.983956         158.789         0.178384        -111.365
60.59                   0.188767        -111.707         0.982014         158.135         0.982014         158.135         0.188766        -112.015
60.6                    0.202224        -112.547         0.979327         157.299         0.979327         157.299         0.202223        -112.843
60.61                   0.220402        -113.669         0.975389         156.184         0.975389         156.184           0.2204        -113.948
60.62                   0.246428        -115.263         0.969127           154.6         0.969127           154.6         0.246426        -115.516
60.63                   0.287149        -117.752          0.95782         152.125          0.95782         152.125         0.287148        -117.965
60.64                    0.36139        -122.336         0.932258         147.566         0.932258         147.566         0.361394        -122.475
60.65                   0.547873        -134.503         0.835952         135.437         0.835952         135.437         0.547899        -134.486
60.66                   0.896382         142.123         0.443283        -127.606         0.443283        -127.606         0.896382         142.664
60.67                  0.0691966        -101.684         0.997492         164.753         0.997492         164.753        0.0692005        -108.689
60.68                   0.740563        -148.521         0.671987         120.839         0.671987         120.839         0.740563        -149.802
60.69                   0.513058          109.91         0.858354         -160.56         0.858354         -160.56         0.513058         108.969
60.7                    0.218648         91.5702         0.975755        -178.838         0.975755        -178.838         0.218644         90.7315
60.71                   0.119167         85.7246         0.992841          175.33         0.992841          175.33         0.119164         84.9088
60.72                  0.0686911         82.7874         0.997616         172.377         0.997616         172.377        0.0686891         81.9388
60.73                  0.0378268         81.0251          0.99927         170.559          0.99927         170.559        0.0378255         80.0604
60.74                  0.0168773           79.96         0.999849          169.31         0.999849          169.31        0.0168765         78.6172
60.75                 0.00167818         82.1926         0.999993         168.391         0.999993         168.391       0.00167814         74.3485
60.76                 0.00988168        -102.625         0.999949         167.681         0.999949         167.681       0.00988192        -101.995
60.77                  0.0189725        -102.914          0.99982         167.112          0.99982         167.112        0.0189725        -102.863
60.78                  0.0263148        -103.301         0.999656         166.642         0.999656         166.642        0.0263147        -103.421
60.79                  0.0323696        -103.658          0.99948         166.245          0.99948         166.245        0.0323693        -103.859
60.8                   0.0374471        -103.977         0.999304         165.903         0.999304         165.903        0.0374467        -104.224
60.81                  0.0417642        -104.261         0.999134         165.605         0.999134         165.605        0.0417636        -104.538
60.82                  0.0454768        -104.516         0.998973          165.34         0.998973          165.34        0.0454762        -104.814
60.83                  0.0487002        -104.746         0.998822         165.102         0.998822         165.102        0.0486995         -105.06
60.84                  0.0515211        -104.956         0.998682         164.886         0.998682         164.886        0.0515204        -105.282
60.85                  0.0540059         -105.15         0.998552         164.688         0.998552         164.688        0.0540052        -105.484
60.86                  0.0562066        -105.328         0.998432         164.505         0.998432         164.505        0.0562059        -105.671
60.87                  0.0581637        -105.495         0.998321         164.335         0.998321         164.335         0.058163        -105.845
60.88                  0.0599098        -105.652         0.998219         164.175         0.998219         164.175        0.0599091        -106.008
60.89                  0.0614708        -105.801         0.998125         164.023         0.998125         164.023        0.0614701        -106.162
60.9                   0.0628674        -105.942          0.99804          163.88          0.99804          163.88        0.0628668        -106.308
60.91                  0.0641166        -106.077         0.997961         163.742         0.997961         163.742        0.0641161        -106.449
60.92                  0.0652318        -106.207         0.997891         163.609         0.997891         163.609        0.0652313        -106.583
60.93                  0.0662236        -106.333         0.997827         163.481         0.997827         163.481        0.0662231        -106.714
60.94                  0.0671003        -106.455          0.99777         163.356          0.99777         163.356        0.0670999        -106.841
60.95                  0.0678681        -106.574          0.99772         163.234          0.99772         163.234        0.0678678        -106.966
60.96                  0.0685312        -106.692         0.997677         163.114         0.997677         163.114         0.068531        -107.089
60.97                  0.0690922        -106.807         0.997641         162.995         0.997641         162.995         0.069092         -107.21
60.98                  0.0695516        -106.923         0.997612         162.877         0.997612         162.877        0.0695516        -107.332
60.99                  0.0699082        -107.037          0.99759         162.758          0.99759         162.758        0.0699084        -107.453
61                     0.0701591        -107.153         0.997576         162.639         0.997576         162.639        0.0701593        -107.576
61.01                  0.0702987        -107.269         0.997571         162.518         0.997571         162.518        0.0702991        -107.701
61.02                  0.0703191        -107.388         0.997574         162.395         0.997574         162.395        0.0703196        -107.829
61.03                   0.070209        -107.509         0.997588         162.268         0.997588         162.268        0.0702097        -107.961
61.04                  0.0699534        -107.634         0.997613         162.137         0.997613         162.137        0.0699542        -108.099
61.05                   0.069532        -107.765          0.99765         161.999          0.99765         161.999        0.0695329        -108.244
61.06                  0.0689175        -107.902         0.997701         161.854         0.997701         161.854        0.0689186        -108.398
61.07                  0.0680737        -108.048         0.997766         161.698         0.997766         161.698        0.0680749        -108.565
61.08                   0.066951        -108.205         0.997847         161.529         0.997847         161.529        0.0669522        -108.747
61.09                  0.0654809        -108.376         0.997944         161.343         0.997944         161.343        0.0654823         -108.95
61.1                   0.0635668        -108.566         0.998058         161.133         0.998058         161.133        0.0635682         -109.18
61.11                  0.0610682        -108.781         0.998197         160.891         0.998197         160.891        0.0610696        -109.449
61.12                  0.0577731         -109.03         0.998374         160.605         0.998374         160.605        0.0577745        -109.773
61.13                  0.0533477        -109.322         0.998603         160.255         0.998603         160.255        0.0533489        -110.178
61.14                  0.0472335        -109.673         0.998898          159.81         0.998898          159.81        0.0472345        -110.715
61.15                  0.0384231        -110.086         0.999267         159.212         0.999267         159.212        0.0384237        -111.496
61.16                  0.0248949        -110.421          0.99969         158.344          0.99969         158.344        0.0248949        -112.891
61.17                 0.00200067        -94.2658         0.999996         156.936         0.999996         156.936       0.00199865        -131.758
61.18                  0.0449304         63.0675         0.998988         154.162         0.998988         154.162        0.0449318         65.2469
61.19                   0.187998         55.3569         0.982169         145.811         0.982169         145.811         0.187998         56.2655
61.2                    0.949109        -42.0513         0.314948        -131.799         0.314948        -131.799         0.949109         -41.546
61.21                   0.889063        -50.9247         0.457786        -140.773         0.457786        -140.773         0.889063        -50.6204
61.22                   0.247697        -99.3679         0.968837         170.726         0.968837         170.726         0.247697        -99.1791
61.23                   0.195042        -102.506         0.980788         167.548         0.980788         167.548         0.195037        -102.397
61.24                   0.170837        -103.973         0.985292         166.052         0.985292         166.052         0.170828        -103.921
61.25                   0.156837         -104.85         0.987618         165.153         0.987618         165.153         0.156824        -104.839
61.26                   0.147766        -105.445         0.989017         164.542         0.989017         164.542         0.147749        -105.465
61.27                   0.141469        -105.882         0.989938         164.093         0.989938         164.093         0.141448        -105.927
61.28                    0.13689        -106.222         0.990583         163.743         0.990583         163.743         0.136866        -106.286
61.29                   0.133451        -106.499         0.991053         163.459         0.991053         163.459         0.133424        -106.578
61.3                    0.130809        -106.732         0.991406         163.221         0.991406         163.221         0.130781        -106.822
61.31                   0.128745        -106.932         0.991677         163.016         0.991677         163.016         0.128719        -107.031
61.32                   0.127116         -107.11         0.991887         162.836         0.991887         162.836         0.127097        -107.215
61.33                   0.125823        -107.269         0.992053         162.675         0.992053         162.675         0.125823        -107.381
61.34                   0.124797        -107.414         0.992183         162.529         0.992183         162.529         0.124846        -107.556
61.35                   0.123987        -107.547         0.992284         162.394         0.992284         162.394         0.123916        -107.706
61.36                   0.123356        -107.672         0.992363         162.268         0.992363         162.268         0.123288        -107.813
61.37                   0.122877         -107.79         0.992423         162.149         0.992423         162.149         0.122817        -107.928
61.38                   0.122528        -107.902         0.992466         162.037         0.992466         162.037         0.122475        -108.039
61.39                   0.122295         -108.01         0.992495         161.929         0.992495         161.929         0.122247        -108.147
61.4                    0.122166        -108.114         0.992511         161.824         0.992511         161.824         0.122122        -108.252
61.41                   0.122134        -108.215         0.992515         161.722         0.992515         161.722         0.122094        -108.354
61.42                   0.122194        -108.315         0.992507         161.622         0.992507         161.622         0.122158        -108.454
61.43                   0.122345        -108.415         0.992489         161.522         0.992489         161.522         0.122312        -108.553
61.44                   0.122588        -108.514         0.992459         161.423         0.992459         161.423         0.122558        -108.652
61.45                   0.122927        -108.614         0.992417         161.323         0.992417         161.323           0.1229        -108.751
61.46                   0.123369        -108.716         0.992362         161.221         0.992362         161.221         0.123346        -108.852
61.47                   0.123929        -108.822         0.992292         161.116         0.992292         161.116         0.123909        -108.956
61.48                   0.124625        -108.932         0.992205         161.006         0.992205         161.006         0.124609        -109.063
61.49                   0.125486        -109.049         0.992096         160.889         0.992096         160.889         0.125474        -109.177
61.5                    0.126553        -109.176          0.99196         160.764          0.99196         160.764         0.126546          -109.3
61.51                    0.12789        -109.317         0.991788         160.624         0.991788         160.624          0.12789        -109.435
61.52                   0.129594        -109.477         0.991566         160.465         0.991566         160.465         0.129603        -109.588
61.53                   0.131826        -109.666         0.991271         160.277         0.991271         160.277         0.131848        -109.769
61.54                   0.134862          -109.9          0.99086         160.041          0.99086         160.041         0.134906        -109.994
61.55                   0.139225        -110.207         0.990249         159.725         0.990249         159.725         0.139313        -110.293
61.56                   0.145999        -110.629         0.989186         159.231         0.989186         159.231         0.146226        -110.735
61.57                   0.159901        -111.417         0.987133         158.585         0.987133         158.585         0.159901        -111.414
61.58                   0.188224        -113.326          0.98212         156.789          0.98212         156.789         0.187954        -113.153
61.59                   0.339792        -122.459         0.940501         147.722         0.940501         147.722         0.339792        -122.098
61.6                   0.0736306         80.5406         0.997218         171.766         0.997218         171.766        0.0733073         82.6356
61.61                  0.0487692        -104.613          0.99881         164.688          0.99881         164.688        0.0487692        -106.012
61.62                  0.0755873        -106.585         0.997143         163.099         0.997143         163.099        0.0755578        -107.246
61.63                  0.0873983          -107.4         0.996178         162.374         0.996178         162.374        0.0873623        -107.883
61.64                  0.0941017         -107.87         0.995567         161.944         0.995567         161.944        0.0940645        -108.272
61.65                  0.0984641        -108.186         0.995145          161.65         0.995145          161.65        0.0984273        -108.543
61.66                   0.101562         -108.42         0.994834         161.429         0.994834         161.429         0.101526        -108.749
61.67                   0.103902        -108.606         0.994592         161.253         0.994592         161.253         0.103867        -108.914
61.68                   0.105752         -108.76         0.994397         161.106         0.994397         161.106         0.105718        -109.053
61.69                   0.107269        -108.892         0.994235         160.979         0.994235         160.979         0.107236        -109.174
61.7                     0.10855         -109.01         0.994096         160.866         0.994096         160.866         0.108518        -109.282
61.71                   0.109658        -109.116         0.993974         160.763         0.993974         160.763         0.109628        -109.381
61.72                   0.110637        -109.213         0.993865         160.669         0.993865         160.669         0.110608        -109.472
61.73                   0.111518        -109.304         0.993767          160.58         0.993767          160.58          0.11149        -109.557
61.74                   0.112322        -109.389         0.993676         160.497         0.993676         160.497         0.112295        -109.638
61.75                   0.113067         -109.47         0.993592         160.417         0.993592         160.417          0.11304        -109.716
61.76                   0.113765        -109.548         0.993512         160.341         0.993512         160.341         0.113739         -109.79
61.77                   0.114425        -109.624         0.993436         160.267         0.993436         160.267           0.1144        -109.862
61.78                   0.115057        -109.697         0.993363         160.195         0.993363         160.195         0.115033        -109.932
61.79                   0.115666        -109.768         0.993292         160.124         0.993292         160.124         0.115643        -110.001
61.8                    0.116258        -109.838         0.993223         160.055         0.993223         160.055         0.116235        -110.069
61.81                   0.116838        -109.907         0.993155         159.987         0.993155         159.987         0.116816        -110.135
61.82                   0.117409        -109.975         0.993088          159.92         0.993088          159.92         0.117388        -110.201
61.83                   0.117975        -110.042          0.99302         159.853          0.99302         159.853         0.117955        -110.267
61.84                   0.118541        -110.109         0.992953         159.787         0.992953         159.787         0.118521        -110.332
61.85                   0.119107        -110.176         0.992885         159.721         0.992885         159.721         0.119088        -110.397
61.86                   0.119679        -110.243         0.992816         159.655         0.992816         159.655          0.11966        -110.462
61.87                   0.120259         -110.31         0.992746         159.588         0.992746         159.588         0.120241        -110.527
61.88                   0.120849        -110.378         0.992674         159.522         0.992674         159.522         0.120832        -110.593
61.89                   0.121454        -110.446           0.9926         159.454           0.9926         159.454         0.121438        -110.659
61.9                    0.122077        -110.515         0.992524         159.386         0.992524         159.386         0.122061        -110.726
61.91                   0.122722        -110.584         0.992444         159.317         0.992444         159.317         0.122706        -110.795
61.92                   0.123393        -110.656         0.992361         159.246         0.992361         159.246         0.123378        -110.864
61.93                   0.124095        -110.729         0.992273         159.173         0.992273         159.173         0.124081        -110.936
61.94                   0.124835        -110.803          0.99218         159.099          0.99218         159.099         0.124821        -111.009
61.95                   0.125619        -110.881         0.992081         159.022         0.992081         159.022         0.125606        -111.085
61.96                   0.126455        -110.961         0.991975         158.943         0.991975         158.943         0.126443        -111.163
61.97                   0.127354        -111.045          0.99186          158.86          0.99186          158.86         0.127343        -111.245