! TOUCHSTONE file generated by CST MICROWAVE STUDIO
! Date and time: Thu Feb 22 11:54:30 2024
! Project name: material_angular.cst
! Parameters = {Y=2}
! Header version: 2018
! Port assignment regex: !\s*Touchstone port\s*([0-9]+)\s*=\s*(CST MWS port|CST DS port)\s*([0-9]+|Zmin|Zmax)\s*\(\"(.*)\"\)(\s*mode\s*([0-9]+))?.*
! Touchstone port assignment:
! Touchstone port 1 = CST MWS port 1 ("")
! Touchstone port 2 = CST MWS port 2 ("")
# GHz S MA R 376.7
60                     0.0886975        -174.827         0.996059         161.658         0.996059         161.658        0.0886975        -41.8568
60.01                   0.088956        -174.774         0.996046         161.631         0.996046         161.631        0.0889209         -41.941
60.02                  0.0892136         -174.72         0.996032         161.605         0.996032         161.605        0.0891447         -42.026
60.03                  0.0894703        -174.665         0.996019         161.578         0.996019         161.578         0.089369        -42.1119
60.04                  0.0897261        -174.609         0.996006         161.551         0.996006         161.551        0.0895936        -42.1988
60.05                  0.0899809        -174.552         0.995992         161.525         0.995992         161.525        0.0898186        -42.2867
60.06                  0.0902346        -174.495         0.995978         161.498         0.995978         161.498         0.090044        -42.3756
60.07                  0.0904872        -174.437         0.995964         161.471         0.995964         161.471        0.0902698        -42.4656
60.08                  0.0907386        -174.377          0.99595         161.444          0.99595         161.444        0.0904958        -42.5567
60.09                  0.0909889        -174.317         0.995936         161.418         0.995936         161.418        0.0907221        -42.6489
60.1                   0.0912378        -174.256         0.995922         161.391         0.995922         161.391        0.0909486        -42.7423
60.11                  0.0914855        -174.195         0.995908         161.364         0.995908         161.364        0.0911753        -42.8368
60.12                  0.0917317        -174.132         0.995893         161.337         0.995893         161.337        0.0914022        -42.9327
60.13                  0.0919765        -174.068         0.995878         161.311         0.995878         161.311        0.0916292        -43.0298
60.14                  0.0922197        -174.003         0.995864         161.284         0.995864         161.284        0.0918562        -43.1282
60.15                  0.0924614        -173.938         0.995849         161.257         0.995849         161.257        0.0920832         -43.228
60.16                  0.0927013        -173.871         0.995834          161.23         0.995834          161.23        0.0923102        -43.3292
60.17                  0.0929394        -173.803         0.995819         161.203         0.995819         161.203         0.092537        -43.4319
60.18                  0.0931757        -173.734         0.995803         161.176         0.995803         161.176        0.0927637        -43.5361
60.19                    0.09341        -173.665         0.995788         161.149         0.995788         161.149          0.09299        -43.6418
60.2                   0.0936423        -173.594         0.995773         161.122         0.995773         161.122         0.093216        -43.7491
60.21                  0.0938724        -173.522         0.995757         161.095         0.995757         161.095        0.0934415         -43.858
60.22                  0.0941003        -173.449         0.995742         161.069         0.995742         161.069        0.0936665        -43.9687
60.23                  0.0943258        -173.375         0.995726         161.042         0.995726         161.042        0.0938908         -44.081
60.24                  0.0945488          -173.3          0.99571         161.015          0.99571         161.015        0.0941144        -44.1951
60.25                  0.0947692        -173.223         0.995694         160.987         0.995694         160.987        0.0943371         -44.311
60.26                  0.0949868        -173.146         0.995678          160.96         0.995678          160.96        0.0945587        -44.4287
60.27                  0.0952017        -173.068         0.995662         160.933         0.995662         160.933        0.0947792        -44.5483
60.28                  0.0954135        -172.988         0.995646         160.906         0.995646         160.906        0.0949984        -44.6699
60.29                  0.0956223        -172.908          0.99563         160.879          0.99563         160.879        0.0952161        -44.7934
60.3                   0.0958278        -172.826         0.995614         160.852         0.995614         160.852        0.0954321         -44.919
60.31                  0.0960299        -172.744         0.995598         160.825         0.995598         160.825        0.0956463        -45.0465
60.32                  0.0962284         -172.66         0.995582         160.798         0.995582         160.798        0.0958586        -45.1761
60.33                  0.0964233        -172.576         0.995566         160.771         0.995566         160.771        0.0960686        -45.3079
60.34                  0.0966143         -172.49         0.995549         160.744         0.995549         160.744        0.0962761        -45.4417
60.35                  0.0968013        -172.404         0.995533         160.716         0.995533         160.716         0.096481        -45.5777
60.36                  0.0969842        -172.316         0.995517         160.689         0.995517         160.689         0.096683        -45.7158
60.37                  0.0971628        -172.228         0.995501         160.662         0.995501         160.662        0.0968818         -45.856
60.38                  0.0973369        -172.139         0.995484         160.635         0.995484         160.635        0.0970772        -45.9984
60.39                  0.0975063        -172.049         0.995468         160.607         0.995468         160.607         0.097269         -46.143
60.4                   0.0976709        -171.959         0.995452          160.58         0.995452          160.58        0.0974567        -46.2897
60.41                  0.0978305        -171.868         0.995435         160.553         0.995435         160.553        0.0976401        -46.4384
60.42                   0.097985        -171.776         0.995419         160.525         0.995419         160.525         0.097819        -46.5893
60.43                  0.0981342        -171.684         0.995403         160.498         0.995403         160.498        0.0979929        -46.7421
60.44                   0.098278        -171.592         0.995386         160.471         0.995386         160.471        0.0981615        -46.8969
60.45                  0.0984161        -171.499          0.99537         160.443          0.99537         160.443        0.0983246        -47.0536
60.46                  0.0985484        -171.406         0.995354         160.416         0.995354         160.416        0.0984818        -47.2122
60.47                  0.0986748        -171.313         0.995338         160.388         0.995338         160.388        0.0986327        -47.3724
60.48                  0.0987951         -171.22         0.995322         160.361         0.995322         160.361        0.0987769        -47.5342
60.49                  0.0989092        -171.127         0.995306         160.334         0.995306         160.334        0.0989141        -47.6974
60.5                    0.099017        -171.035          0.99529         160.306          0.99529         160.306        0.0990441         -47.862
60.51                  0.0991183        -170.942         0.995274         160.279         0.995274         160.279        0.0991663        -48.0276
60.52                  0.0992131        -170.851         0.995258         160.251         0.995258         160.251        0.0992805        -48.1943
60.53                  0.0993012         -170.76         0.995242         160.224         0.995242         160.224        0.0993864        -48.3617
60.54                  0.0993825        -170.669         0.995226         160.196         0.995226         160.196        0.0994837        -48.5296
60.55                   0.099457         -170.58         0.995211         160.169         0.995211         160.169        0.0995719        -48.6978
60.56                  0.0995246        -170.492         0.995195         160.141         0.995195         160.141         0.099651        -48.8661
60.57                  0.0995853        -170.405          0.99518         160.113          0.99518         160.113        0.0997206         -49.034
60.58                  0.0996391         -170.32         0.995165         160.086         0.995165         160.086        0.0997806        -49.2014
60.59                  0.0996859        -170.236          0.99515         160.058          0.99515         160.058        0.0998307         -49.368
60.6                   0.0997258        -170.154         0.995135         160.031         0.995135         160.031        0.0998709        -49.5333
60.61                  0.0997588        -170.074          0.99512         160.003          0.99512         160.003         0.099901        -49.6971
60.62                   0.099785        -169.997         0.995105         159.975         0.995105         159.975        0.0999211         -49.859
60.63                  0.0998044        -169.921         0.995091         159.948         0.995091         159.948         0.099931        -50.0186
60.64                  0.0998172        -169.849         0.995077          159.92         0.995077          159.92        0.0999309        -50.1755
60.65                  0.0998235        -169.779         0.995063         159.892         0.995063         159.892         0.099921        -50.3294
60.66                  0.0998235        -169.712         0.995049         159.864         0.995049         159.864        0.0999014        -50.4799
60.67                  0.0998172        -169.648         0.995035         159.837         0.995035         159.837        0.0998723        -50.6267
60.68                   0.099805        -169.587         0.995022         159.809         0.995022         159.809         0.099834        -50.7692
60.69                   0.099787         -169.53         0.995009         159.781         0.995009         159.781         0.099787        -50.9072
60.7                   0.0997635        -169.477         0.994996         159.753         0.994996         159.753        0.0997317        -51.0403
60.71                  0.0997348        -169.427         0.994983         159.726         0.994983         159.726        0.0996685        -51.1682
60.72                  0.0997012        -169.382         0.994971         159.698         0.994971         159.698        0.0995981        -51.2906
60.73                  0.0996629         -169.34         0.994959          159.67         0.994959          159.67        0.0995209        -51.4071
60.74                  0.0996202        -169.303         0.994947         159.642         0.994947         159.642        0.0994377        -51.5175
60.75                  0.0995737         -169.27         0.994936         159.614         0.994936         159.614        0.0993491        -51.6217
60.76                  0.0995235        -169.242         0.994925         159.586         0.994925         159.586        0.0992558        -51.7193
60.77                  0.0994701        -169.218         0.994914         159.558         0.994914         159.558        0.0991587        -51.8102
60.78                  0.0994139        -169.199         0.994904         159.531         0.994904         159.531        0.0990584        -51.8942
60.79                  0.0993553        -169.184         0.994894         159.503         0.994894         159.503        0.0989558        -51.9714
60.8                   0.0992946        -169.175         0.994884         159.475         0.994884         159.475        0.0988517        -52.0416
60.81                  0.0992324         -169.17         0.994875         159.447         0.994875         159.447        0.0987467        -52.1049
60.82                  0.0991689         -169.17         0.994866         159.419         0.994866         159.419        0.0986418        -52.1612
60.83                  0.0991046        -169.175         0.994857         159.391         0.994857         159.391        0.0985376        -52.2107
60.84                    0.09904        -169.185         0.994849         159.363         0.994849         159.363         0.098435        -52.2534
60.85                  0.0989755        -169.199         0.994842         159.335         0.994842         159.335        0.0983346        -52.2895
60.86                  0.0989114        -169.219         0.994834         159.306         0.994834         159.306         0.098237        -52.3191
60.87                  0.0988482        -169.243         0.994827         159.278         0.994827         159.278         0.098143        -52.3425
60.88                  0.0987862        -169.271         0.994821          159.25         0.994821          159.25        0.0980532        -52.3598
60.89                  0.0987258        -169.305         0.994815         159.222         0.994815         159.222         0.097968        -52.3714
60.9                   0.0986674        -169.342          0.99481         159.194          0.99481         159.194        0.0978879        -52.3775
60.91                  0.0986113        -169.385         0.994805         159.166         0.994805         159.166        0.0978135        -52.3784
60.92                  0.0985578        -169.431           0.9948         159.137           0.9948         159.137        0.0977451        -52.3743
60.93                  0.0985074        -169.481         0.994796         159.109         0.994796         159.109         0.097683        -52.3657
60.94                  0.0984602        -169.536         0.994792         159.081         0.994792         159.081        0.0976276        -52.3529
60.95                  0.0984165        -169.594         0.994789         159.052         0.994789         159.052        0.0975791         -52.336
60.96                  0.0983766        -169.656         0.994786         159.024         0.994786         159.024        0.0975377        -52.3156
60.97                  0.0983408        -169.722         0.994784         158.996         0.994784         158.996        0.0975035        -52.2919
60.98                  0.0983091        -169.791         0.994783         158.967         0.994783         158.967        0.0974767        -52.2652
60.99                  0.0982819        -169.863         0.994781         158.939         0.994781         158.939        0.0974573        -52.2359
61                     0.0982593        -169.938         0.994781          158.91         0.994781          158.91        0.0974453        -52.2042
61.01                  0.0982413        -170.016         0.994781         158.882         0.994781         158.882        0.0974408        -52.1705
61.02                  0.0982283        -170.096         0.994781         158.853         0.994781         158.853        0.0974436         -52.135
61.03                  0.0982202        -170.179         0.994782         158.825         0.994782         158.825        0.0974538         -52.098
61.04                  0.0982172        -170.264         0.994783         158.796         0.994783         158.796        0.0974712        -52.0598
61.05                  0.0982193        -170.351         0.994785         158.767         0.994785         158.767        0.0974957        -52.0206
61.06                  0.0982265        -170.441         0.994788         158.738         0.994788         158.738        0.0975272        -51.9807
61.07                   0.098239        -170.531         0.994791          158.71         0.994791          158.71        0.0975655        -51.9402
61.08                  0.0982567        -170.624         0.994795         158.681         0.994795         158.681        0.0976104        -51.8994
61.09                  0.0982795        -170.718         0.994799         158.652         0.994799         158.652        0.0976619        -51.8585
61.1                   0.0983076        -170.813         0.994804         158.623         0.994804         158.623        0.0977195        -51.8176
61.11                  0.0983409        -170.909         0.994809         158.594         0.994809         158.594        0.0977833        -51.7769
61.12                  0.0983793        -171.006         0.994815         158.565         0.994815         158.565        0.0978529        -51.7366
61.13                  0.0984227        -171.104         0.994822         158.536         0.994822         158.536        0.0979282        -51.6967
61.14                  0.0984712        -171.202         0.994829         158.507         0.994829         158.507         0.098009        -51.6574
61.15                  0.0985246        -171.301         0.994837         158.478         0.994837         158.478         0.098095        -51.6189
61.16                  0.0985829        -171.401         0.994845         158.449         0.994845         158.449         0.098186        -51.5812
61.17                   0.098646          -171.5         0.994855         158.419         0.994855         158.419        0.0982818        -51.5444
61.18                  0.0987137          -171.6         0.994864          158.39         0.994864          158.39        0.0983823        -51.5085
61.19                   0.098786          -171.7         0.994875         158.361         0.994875         158.361        0.0984871        -51.4737
61.2                   0.0988628          -171.8         0.994886         158.331         0.994886         158.331        0.0985962          -51.44
61.21                  0.0989439        -171.899         0.994897         158.302         0.994897         158.302        0.0987092        -51.4075
61.22                  0.0990293        -171.999         0.994909         158.272         0.994909         158.272        0.0988261        -51.3761
61.23                  0.0991189        -172.098         0.994922         158.243         0.994922         158.243        0.0989466         -51.346
61.24                  0.0992124        -172.196         0.994936         158.213         0.994936         158.213        0.0990705        -51.3172
61.25                  0.0993098        -172.294          0.99495         158.183          0.99495         158.183        0.0991978        -51.2896
61.26                   0.099411        -172.392         0.994965         158.153         0.994965         158.153        0.0993281        -51.2634
61.27                  0.0995159        -172.488         0.994981         158.124         0.994981         158.124        0.0994613        -51.2385
61.28                  0.0996242        -172.585         0.994997         158.094         0.994997         158.094        0.0995974        -51.2149
61.29                   0.099736         -172.68         0.995014         158.064         0.995014         158.064         0.099736        -51.1926
61.3                   0.0998511        -172.775         0.995032         158.034         0.995032         158.034        0.0998772        -51.1717
61.31                  0.0999693        -172.868          0.99505         158.004          0.99505         158.004         0.100021        -51.1521
61.32                   0.100091        -172.961         0.995069         157.973         0.995069         157.973         0.100166        -51.1338
61.33                   0.100215        -173.054         0.995088         157.943         0.995088         157.943         0.100314        -51.1168
61.34                   0.100342        -173.145         0.995109         157.913         0.995109         157.913         0.100464        -51.1012
61.35                   0.100471        -173.235          0.99513         157.882          0.99513         157.882         0.100615        -51.0868
61.36                   0.100604        -173.324         0.995151         157.852         0.995151         157.852         0.100769        -51.0737
61.37                   0.100739        -173.413         0.995174         157.821         0.995174         157.821         0.100924        -51.0619
61.38                   0.100876          -173.5         0.995197         157.791         0.995197         157.791          0.10108        -51.0513
61.39                   0.101015        -173.586          0.99522          157.76          0.99522          157.76         0.101238         -51.042
61.4                    0.101157        -173.672         0.995245         157.729         0.995245         157.729         0.101397        -51.0339
61.41                     0.1013        -173.756          0.99527         157.698          0.99527         157.698         0.101558        -51.0269
61.42                   0.101446        -173.839         0.995295         157.667         0.995295         157.667          0.10172        -51.0212
61.43                   0.101593        -173.921         0.995321         157.636         0.995321         157.636         0.101882        -51.0165
61.44                   0.101743        -174.002         0.995348         157.605         0.995348         157.605         0.102046         -51.013
61.45                   0.101894        -174.082         0.995376         157.574         0.995376         157.574         0.102211        -51.0106
61.46                   0.102046        -174.162         0.995404         157.543         0.995404         157.543         0.102377        -51.0093
61.47                     0.1022         -174.24         0.995432         157.511         0.995432         157.511         0.102543        -51.0091
61.48                   0.102356        -174.317         0.995462          157.48         0.995462          157.48          0.10271        -51.0098
61.49                   0.102513        -174.393         0.995491         157.448         0.995491         157.448         0.102878        -51.0116
61.5                    0.102671        -174.468         0.995522         157.416         0.995522         157.416         0.103047        -51.0144
61.51                   0.102831        -174.542         0.995552         157.384         0.995552         157.384         0.103216        -51.0182
61.52                   0.102992        -174.615         0.995584         157.353         0.995584         157.353         0.103386        -51.0229
61.53                   0.103153        -174.687         0.995616         157.321         0.995616         157.321         0.103556        -51.0285
61.54                   0.103316        -174.758         0.995648         157.288         0.995648         157.288         0.103727         -51.035
61.55                    0.10348        -174.828          0.99568         157.256          0.99568         157.256         0.103898        -51.0424
61.56                   0.103645        -174.897         0.995714         157.224         0.995714         157.224          0.10407        -51.0507
61.57                    0.10381        -174.965         0.995747         157.191         0.995747         157.191         0.104241        -51.0598
61.58                   0.103977        -175.033         0.995781         157.159         0.995781         157.159         0.104414        -51.0697
61.59                   0.104144        -175.099         0.995815         157.126         0.995815         157.126         0.104586        -51.0804
61.6                    0.104312        -175.165          0.99585         157.093          0.99585         157.093         0.104759        -51.0919
61.61                   0.104481        -175.229         0.995884          157.06         0.995884          157.06         0.104932        -51.1042
61.62                    0.10465        -175.293         0.995919         157.027         0.995919         157.027         0.105105        -51.1172
61.63                    0.10482        -175.356         0.995954         156.994         0.995954         156.994         0.105278        -51.1309
61.64                    0.10499        -175.418          0.99599         156.961          0.99599         156.961         0.105452        -51.1454
61.65                   0.105161        -175.479         0.996025         156.928         0.996025         156.928         0.105625        -51.1605
61.66                   0.105332         -175.54         0.996061         156.894         0.996061         156.894         0.105799        -51.1763
61.67                   0.105504          -175.6         0.996097         156.861         0.996097         156.861         0.105973        -51.1927
61.68                   0.105676        -175.659         0.996132         156.827         0.996132         156.827         0.106146        -51.2098
61.69                   0.105849        -175.717         0.996168         156.793         0.996168         156.793          0.10632        -51.2275
61.7                    0.106021        -175.774         0.996204         156.759         0.996204         156.759         0.106494        -51.2458
61.71                   0.106195        -175.831         0.996239         156.725         0.996239         156.725         0.106668        -51.2647
61.72                   0.106368        -175.887         0.996274         156.691         0.996274         156.691         0.106842        -51.2842
61.73                   0.106542        -175.942         0.996309         156.656         0.996309         156.656         0.107015        -51.3042
61.74                   0.106715        -175.997         0.996344         156.622         0.996344         156.622         0.107189        -51.3248
61.75                    0.10689        -176.051         0.996379         156.587         0.996379         156.587         0.107363        -51.3459
61.76                   0.107064        -176.104         0.996413         156.552         0.996413         156.552         0.107536        -51.3675
61.77                   0.107238        -176.157         0.996447         156.517         0.996447         156.517          0.10771        -51.3896
61.78                   0.107413        -176.209         0.996481         156.482         0.996481         156.482         0.107883        -51.4122
61.79                   0.107587         -176.26         0.996513         156.447         0.996513         156.447         0.108057        -51.4353
61.8                    0.107762        -176.311         0.996546         156.412         0.996546         156.412          0.10823        -51.4589
61.81                   0.107937        -176.361         0.996578         156.377         0.996578         156.377         0.108403        -51.4829
61.82                   0.108111        -176.411         0.996609         156.341         0.996609         156.341         0.108576        -51.5074
61.83                   0.108286         -176.46         0.996639         156.305         0.996639         156.305         0.108749        -51.5323
61.84                   0.108461        -176.508         0.996669          156.27         0.996669          156.27         0.108921        -51.5576
61.85                   0.108636        -176.556         0.996698         156.234         0.996698         156.234         0.109094        -51.5834
61.86                   0.108811        -176.604         0.996726         156.198         0.996726         156.198         0.109266        -51.6095
61.87                   0.108985        -176.651         0.996753         156.161         0.996753         156.161         0.109438         -51.636
61.88                    0.10916        -176.698         0.996779         156.125         0.996779         156.125          0.10961         -51.663
61.89                   0.109335        -176.744         0.996805         156.089         0.996805         156.089         0.109782        -51.6902
61.9                    0.109509        -176.789         0.996829         156.052         0.996829         156.052         0.109954        -51.7179
61.91                   0.109684        -176.834         0.996852         156.016         0.996852         156.016         0.110125        -51.7459
61.92                   0.109858        -176.879         0.996874         155.979         0.996874         155.979         0.110296        -51.7743
61.93                   0.110033        -176.923         0.996894         155.942         0.996894         155.942         0.110467        -51.8029
61.94                   0.110207        -176.967         0.996914         155.905         0.996914         155.905         0.110638         -51.832
61.95                   0.110381         -177.01         0.996932         155.868         0.996932         155.868         0.110809        -51.8613
61.96                   0.110555        -177.053         0.996949          155.83         0.996949          155.83         0.110979        -51.8909
61.97                   0.110729        -177.096         0.996964         155.793         0.996964         155.793         0.111149        -51.9209