! TOUCHSTONE file generated by CST MICROWAVE STUDIO
! Date and time: Sat Feb 17 14:30:09 2024
! Project name: MUT_rotado.cst
! Parameters = {AngX=1.75}
! Header version: 2018
! Port assignment regex: !\s*Touchstone port\s*([0-9]+)\s*=\s*(CST MWS port|CST DS port)\s*([0-9]+|Zmin|Zmax)\s*\(\"(.*)\"\)(\s*mode\s*([0-9]+))?.*
! Touchstone port assignment:
! Touchstone port 1 = CST MWS port 1 ("")
! Touchstone port 2 = CST MWS port 2 ("")
# GHz S MA R 376.7
60                      0.103641        -85.6075         0.994435         161.479         0.994662         161.482         0.103666        -131.465
60.01                   0.103755        -85.6392         0.994416         161.446         0.994627         161.449         0.103763        -131.509
60.02                    0.10387        -85.6708         0.994398         161.414         0.994591         161.415         0.103861        -131.553
60.03                   0.103987        -85.7024         0.994379         161.382         0.994556         161.382          0.10396        -131.596
60.04                   0.104104         -85.734         0.994361         161.349          0.99452         161.349          0.10406        -131.639
60.05                   0.104223        -85.7656         0.994343         161.317         0.994484         161.316         0.104162         -131.68
60.06                   0.104343        -85.7971         0.994325         161.284         0.994449         161.282         0.104264        -131.721
60.07                   0.104463        -85.8286         0.994307         161.252         0.994413         161.249         0.104368         -131.76
60.08                   0.104585        -85.8601         0.994289          161.22         0.994377         161.216         0.104473          -131.8
60.09                   0.104708        -85.8916         0.994271         161.187         0.994341         161.183          0.10458        -131.838
60.1                    0.104832        -85.9231         0.994254         161.155         0.994305          161.15         0.104688        -131.876
60.11                   0.104957        -85.9545         0.994236         161.122         0.994269         161.116         0.104797        -131.913
60.12                   0.105083        -85.9859         0.994219          161.09         0.994233         161.083         0.104908         -131.95
60.13                    0.10521        -86.0173         0.994201         161.057         0.994197          161.05          0.10502        -131.986
60.14                   0.105338        -86.0487         0.994184         161.025         0.994161         161.017         0.105133        -132.022
60.15                   0.105466          -86.08         0.994167         160.992         0.994125         160.984         0.105248        -132.057
60.16                   0.105596        -86.1113          0.99415          160.96         0.994089         160.951         0.105364        -132.092
60.17                   0.105727        -86.1426         0.994133         160.927         0.994053         160.918         0.105481        -132.126
60.18                   0.105858        -86.1739         0.994116         160.895         0.994017         160.885           0.1056         -132.16
60.19                   0.105991        -86.2051         0.994099         160.862         0.993981         160.852         0.105721        -132.194
60.2                    0.106124        -86.2363         0.994082          160.83         0.993945         160.819         0.105842        -132.227
60.21                   0.106258        -86.2675         0.994066         160.797         0.993909         160.786         0.105965         -132.26
60.22                   0.106393        -86.2987         0.994049         160.764         0.993873         160.753          0.10609        -132.292
60.23                   0.106529        -86.3299         0.994032         160.732         0.993837          160.72         0.106216        -132.324
60.24                   0.106666         -86.361         0.994016         160.699         0.993801         160.687         0.106343        -132.356
60.25                   0.106803        -86.3921            0.994         160.667         0.993765         160.654         0.106471        -132.388
60.26                   0.106942        -86.4232         0.993983         160.634         0.993729         160.621         0.106601         -132.42
60.27                   0.107081        -86.4542         0.993967         160.601         0.993694         160.588         0.106732        -132.451
60.28                   0.107221        -86.4853         0.993951         160.569         0.993658         160.556         0.106865        -132.483
60.29                   0.107361        -86.5163         0.993935         160.536         0.993623         160.523         0.106998        -132.514
60.3                    0.107503        -86.5473         0.993919         160.503         0.993588          160.49         0.107133        -132.545
60.31                   0.107645        -86.5783         0.993903         160.471         0.993553         160.457          0.10727        -132.576
60.32                   0.107787        -86.6092         0.993887         160.438         0.993518         160.424         0.107407        -132.606
60.33                   0.107931        -86.6401         0.993871         160.405         0.993484         160.392         0.107546        -132.637
60.34                   0.108075        -86.6711         0.993855         160.373         0.993449         160.359         0.107685        -132.668
60.35                    0.10822        -86.7019         0.993839          160.34         0.993415         160.326         0.107826        -132.699
60.36                   0.108366        -86.7328         0.993823         160.307         0.993381         160.294         0.107969        -132.729
60.37                   0.108512        -86.7637         0.993808         160.274         0.993347         160.261         0.108112         -132.76
60.38                   0.108659        -86.7945         0.993792         160.242         0.993314         160.229         0.108256         -132.79
60.39                   0.108806        -86.8253         0.993776         160.209         0.993281         160.196         0.108402        -132.821
60.4                    0.108955        -86.8561         0.993761         160.176         0.993248         160.163         0.108548        -132.852
60.41                   0.109104        -86.8869         0.993745         160.143         0.993216         160.131         0.108696        -132.882
60.42                   0.109253        -86.9176          0.99373          160.11         0.993184         160.098         0.108844        -132.913
60.43                   0.109403        -86.9484         0.993714         160.077         0.993152         160.066         0.108994        -132.944
60.44                   0.109554        -86.9791         0.993699         160.045         0.993121         160.033         0.109144        -132.974
60.45                   0.109705        -87.0098         0.993683         160.012          0.99309         160.001         0.109296        -133.005
60.46                   0.109857        -87.0405         0.993668         159.979          0.99306         159.969         0.109448        -133.036
60.47                   0.110009        -87.0712         0.993652         159.946          0.99303         159.936         0.109601        -133.067
60.48                   0.110162        -87.1019         0.993637         159.913            0.993         159.904         0.109756        -133.098
60.49                   0.110316        -87.1325         0.993621          159.88         0.992972         159.871         0.109911         -133.13
60.5                     0.11047        -87.1631         0.993606         159.847         0.992943         159.839         0.110067        -133.161
60.51                   0.110625        -87.1937         0.993591         159.814         0.992916         159.807         0.110223        -133.192
60.52                    0.11078        -87.2244         0.993575         159.781         0.992889         159.774         0.110381        -133.224
60.53                   0.110935        -87.2549          0.99356         159.748         0.992862         159.742         0.110539        -133.255
60.54                   0.111092        -87.2855         0.993544         159.715         0.992836          159.71         0.110698        -133.287
60.55                   0.111248        -87.3161         0.993529         159.682         0.992811         159.678         0.110858        -133.319
60.56                   0.111406        -87.3466         0.993514         159.649         0.992787         159.645         0.111018        -133.351
60.57                   0.111563        -87.3772         0.993498         159.616         0.992763         159.613          0.11118        -133.383
60.58                   0.111721        -87.4077         0.993483         159.583          0.99274         159.581         0.111341        -133.415
60.59                    0.11188        -87.4382         0.993468          159.55         0.992717         159.549         0.111504        -133.448
60.6                    0.112039        -87.4687         0.993452         159.517         0.992696         159.516         0.111667         -133.48
60.61                   0.112199        -87.4992         0.993437         159.484         0.992675         159.484         0.111831        -133.513
60.62                   0.112359        -87.5297         0.993421         159.451         0.992655         159.452         0.111995        -133.545
60.63                   0.112519        -87.5602         0.993406         159.418         0.992636          159.42          0.11216        -133.578
60.64                    0.11268        -87.5906          0.99339         159.385         0.992617         159.388         0.112326        -133.611
60.65                   0.112842        -87.6211         0.993375         159.352         0.992599         159.355         0.112492        -133.644
60.66                   0.113003        -87.6515         0.993359         159.319         0.992582         159.323         0.112659        -133.677
60.67                   0.113166         -87.682         0.993344         159.286         0.992566         159.291         0.112826        -133.711
60.68                   0.113328        -87.7124         0.993328         159.253         0.992551         159.259         0.112994        -133.744
60.69                   0.113491        -87.7428         0.993313         159.219         0.992536         159.226         0.113162        -133.778
60.7                    0.113655        -87.7732         0.993297         159.186         0.992522         159.194         0.113331        -133.811
60.71                   0.113819        -87.8036         0.993281         159.153         0.992509         159.162           0.1135        -133.845
60.72                   0.113983         -87.834         0.993266          159.12         0.992497         159.129         0.113669        -133.879
60.73                   0.114147        -87.8644          0.99325         159.087         0.992486         159.097         0.113839        -133.913
60.74                   0.114312        -87.8948         0.993234         159.053         0.992475         159.065          0.11401        -133.948
60.75                   0.114478        -87.9252         0.993218          159.02         0.992465         159.032         0.114181        -133.982
60.76                   0.114643        -87.9556         0.993203         158.987         0.992456             159         0.114352        -134.016
60.77                    0.11481        -87.9859         0.993187         158.954         0.992447         158.967         0.114524        -134.051
60.78                   0.114976        -88.0163         0.993171         158.921         0.992439         158.935         0.114696        -134.086
60.79                   0.115143        -88.0467         0.993155         158.887         0.992431         158.902         0.114868         -134.12
60.8                     0.11531         -88.077         0.993139         158.854         0.992425          158.87         0.115041        -134.155
60.81                   0.115477        -88.1074         0.993123         158.821         0.992418         158.837         0.115214         -134.19
60.82                   0.115645        -88.1377         0.993106         158.787         0.992413         158.804         0.115388        -134.226
60.83                   0.115813        -88.1681          0.99309         158.754         0.992407         158.772         0.115562        -134.261
60.84                   0.115982        -88.1984         0.993074         158.721         0.992403         158.739         0.115736        -134.296
60.85                    0.11615        -88.2287         0.993058         158.687         0.992398         158.706          0.11591        -134.332
60.86                    0.11632        -88.2591         0.993041         158.654         0.992394         158.673         0.116085        -134.367
60.87                   0.116489        -88.2894         0.993025         158.621         0.992391         158.641          0.11626        -134.403
60.88                   0.116659        -88.3197         0.993008         158.587         0.992387         158.608         0.116435        -134.439
60.89                   0.116829          -88.35         0.992992         158.554         0.992384         158.575         0.116611        -134.475
60.9                    0.116999        -88.3804         0.992975         158.521         0.992381         158.542         0.116787         -134.51
60.91                    0.11717        -88.4107         0.992958         158.487         0.992379         158.509         0.116963        -134.547
60.92                    0.11734         -88.441         0.992941         158.454         0.992376         158.476         0.117139        -134.583
60.93                   0.117511        -88.4713         0.992925          158.42         0.992374         158.442         0.117315        -134.619
60.94                   0.117683        -88.5016         0.992908         158.387         0.992372         158.409         0.117492        -134.655
60.95                   0.117855         -88.532         0.992891         158.354         0.992369         158.376         0.117669        -134.692
60.96                   0.118027        -88.5623         0.992874          158.32         0.992367         158.343         0.117846        -134.728
60.97                   0.118199        -88.5926         0.992856         158.287         0.992365         158.309         0.118024        -134.765
60.98                   0.118371        -88.6229         0.992839         158.253         0.992362         158.276         0.118201        -134.801
60.99                   0.118544        -88.6532         0.992822          158.22          0.99236         158.243         0.118379        -134.838
61                      0.118717        -88.6835         0.992805         158.186         0.992357         158.209         0.118557        -134.875
61.01                    0.11889        -88.7138         0.992787         158.153         0.992355         158.176         0.118735        -134.912
61.02                   0.119064        -88.7442          0.99277         158.119         0.992352         158.142         0.118914        -134.949
61.03                   0.119237        -88.7745         0.992752         158.086         0.992349         158.109         0.119092        -134.986
61.04                   0.119411        -88.8048         0.992734         158.052         0.992345         158.075         0.119271        -135.023
61.05                   0.119585        -88.8351         0.992716         158.019         0.992342         158.041          0.11945         -135.06
61.06                    0.11976        -88.8655         0.992698         157.985         0.992338         158.008         0.119629        -135.097
61.07                   0.119934        -88.8958         0.992681         157.952         0.992333         157.974         0.119808        -135.134
61.08                   0.120109        -88.9261         0.992662         157.918         0.992329          157.94         0.119987        -135.171
61.09                   0.120284        -88.9564         0.992644         157.885         0.992324         157.906         0.120167        -135.209
61.1                     0.12046        -88.9868         0.992626         157.851         0.992319         157.873         0.120346        -135.246
61.11                   0.120635        -89.0171         0.992608         157.817         0.992313         157.839         0.120526        -135.284
61.12                   0.120811        -89.0475         0.992589         157.784         0.992307         157.805         0.120706        -135.321
61.13                   0.120987        -89.0778         0.992571          157.75         0.992301         157.771         0.120886        -135.359
61.14                   0.121163        -89.1081         0.992552         157.717         0.992294         157.737         0.121066        -135.396
61.15                   0.121339        -89.1385         0.992533         157.683         0.992287         157.703         0.121246        -135.434
61.16                   0.121515        -89.1689         0.992515         157.649          0.99228         157.669         0.121426        -135.472
61.17                   0.121692        -89.1992         0.992496         157.616         0.992272         157.635         0.121607        -135.509
61.18                   0.121869        -89.2296         0.992477         157.582         0.992263         157.601         0.121787        -135.547
61.19                   0.122046          -89.26         0.992458         157.549         0.992255         157.567         0.121968        -135.585
61.2                    0.122223        -89.2903         0.992438         157.515         0.992245         157.533         0.122148        -135.623
61.21                   0.122401        -89.3207         0.992419         157.481         0.992236         157.499         0.122329        -135.661
61.22                   0.122578        -89.3511           0.9924         157.448         0.992226         157.465          0.12251        -135.698
61.23                   0.122756        -89.3815          0.99238         157.414         0.992215         157.431         0.122691        -135.736
61.24                   0.122934        -89.4119         0.992361          157.38         0.992204         157.397         0.122872        -135.774
61.25                   0.123112        -89.4423         0.992341         157.347         0.992193         157.362         0.123053        -135.812
61.26                    0.12329        -89.4727         0.992321         157.313         0.992181         157.328         0.123234         -135.85
61.27                   0.123468        -89.5031         0.992301         157.279         0.992169         157.294         0.123416        -135.888
61.28                   0.123647        -89.5336         0.992281         157.245         0.992157          157.26         0.123597        -135.926
61.29                   0.123825         -89.564         0.992261         157.212         0.992144         157.226         0.123778        -135.965
61.3                    0.124004        -89.5944         0.992241         157.178         0.992131         157.192          0.12396        -136.003
61.31                   0.124183        -89.6249         0.992221         157.144         0.992117         157.158         0.124141        -136.041
61.32                   0.124362        -89.6553           0.9922         157.111         0.992103         157.123         0.124323        -136.079
61.33                   0.124542        -89.6858          0.99218         157.077         0.992088         157.089         0.124504        -136.117
61.34                   0.124721        -89.7163         0.992159         157.043         0.992074         157.055         0.124686        -136.155
61.35                     0.1249        -89.7467         0.992139         157.009         0.992058         157.021         0.124868        -136.194
61.36                    0.12508        -89.7772         0.992118         156.976         0.992043         156.987          0.12505        -136.232
61.37                    0.12526        -89.8077         0.992097         156.942         0.992027         156.952         0.125232         -136.27
61.38                    0.12544        -89.8382         0.992076         156.908         0.992011         156.918         0.125413        -136.308
61.39                    0.12562        -89.8687         0.992055         156.874         0.991994         156.884         0.125595        -136.347
61.4                      0.1258        -89.8993         0.992034         156.841         0.991977          156.85         0.125777        -136.385
61.41                    0.12598        -89.9298         0.992012         156.807          0.99196         156.816         0.125959        -136.423
61.42                   0.126161        -89.9603         0.991991         156.773         0.991942         156.781         0.126141        -136.461
61.43                   0.126341        -89.9909         0.991969         156.739         0.991924         156.747         0.126324          -136.5
61.44                   0.126522        -90.0214         0.991948         156.705         0.991906         156.713         0.126506        -136.538
61.45                   0.126702         -90.052         0.991926         156.672         0.991888         156.679         0.126688        -136.576
61.46                   0.126883        -90.0826         0.991904         156.638         0.991869         156.645          0.12687        -136.615
61.47                   0.127064        -90.1131         0.991882         156.604          0.99185          156.61         0.127052        -136.653
61.48                   0.127245        -90.1437          0.99186          156.57         0.991831         156.576         0.127235        -136.691
61.49                   0.127426        -90.1743         0.991838         156.536         0.991811         156.542         0.127417         -136.73
61.5                    0.127607         -90.205         0.991816         156.503         0.991791         156.508         0.127599        -136.768
61.51                   0.127789        -90.2356         0.991793         156.469         0.991771         156.474         0.127781        -136.806
61.52                    0.12797        -90.2662         0.991771         156.435         0.991751         156.439         0.127964        -136.845
61.53                   0.128152        -90.2969         0.991748         156.401         0.991731         156.405         0.128146        -136.883
61.54                   0.128333        -90.3275         0.991726         156.367          0.99171         156.371         0.128328        -136.921
61.55                   0.128515        -90.3582         0.991703         156.333         0.991689         156.337         0.128511         -136.96
61.56                   0.128697        -90.3889          0.99168           156.3         0.991668         156.303         0.128693        -136.998
61.57                   0.128878        -90.4195         0.991657         156.266         0.991646         156.268         0.128876        -137.036
61.58                    0.12906        -90.4502         0.991634         156.232         0.991625         156.234         0.129058        -137.075
61.59                   0.129242        -90.4809         0.991611         156.198         0.991603           156.2         0.129241        -137.113
61.6                    0.129424        -90.5117         0.991588         156.164         0.991581         156.166         0.129423        -137.151
61.61                   0.129606        -90.5424         0.991564          156.13         0.991559         156.132         0.129605        -137.189
61.62                   0.129788        -90.5731         0.991541         156.096         0.991536         156.098         0.129788        -137.228
61.63                   0.129971        -90.6039         0.991517         156.063         0.991514         156.064          0.12997        -137.266
61.64                   0.130153        -90.6347         0.991493         156.029         0.991491         156.029         0.130153        -137.304
61.65                   0.130335        -90.6654          0.99147         155.995         0.991468         155.995         0.130335        -137.343
61.66                   0.130518        -90.6962         0.991446         155.961         0.991445         155.961         0.130518        -137.381
61.67                     0.1307         -90.727         0.991422         155.927         0.991422         155.927           0.1307        -137.419
61.68                   0.130883        -90.7578         0.991398         155.893         0.991399         155.893         0.130883        -137.457
61.69                   0.131065        -90.7886         0.991374         155.859         0.991375         155.859         0.131065        -137.495
61.7                    0.131248        -90.8195         0.991349         155.825         0.991351         155.825         0.131248        -137.534
61.71                   0.131431        -90.8503         0.991325         155.791         0.991328         155.791          0.13143        -137.572
61.72                   0.131614        -90.8812         0.991301         155.757         0.991304         155.756         0.131613         -137.61
61.73                   0.131796         -90.912         0.991276         155.724          0.99128         155.722         0.131795        -137.648
61.74                   0.131979        -90.9429         0.991252          155.69         0.991256         155.688         0.131978        -137.686
61.75                   0.132162        -90.9738         0.991227         155.656         0.991231         155.654          0.13216        -137.724
61.76                   0.132345        -91.0047         0.991202         155.622         0.991207          155.62         0.132342        -137.763
61.77                   0.132528        -91.0356         0.991177         155.588         0.991183         155.586         0.132525        -137.801
61.78                   0.132711        -91.0666         0.991152         155.554         0.991158         155.552         0.132707        -137.839
61.79                   0.132894        -91.0975         0.991127          155.52         0.991133         155.518          0.13289        -137.877
61.8                    0.133077        -91.1285         0.991102         155.486         0.991108         155.484         0.133072        -137.915
61.81                    0.13326        -91.1594         0.991077         155.452         0.991083          155.45         0.133254        -137.953
61.82                   0.133443        -91.1904         0.991051         155.418         0.991058         155.416         0.133437        -137.991
61.83                   0.133626        -91.2214         0.991026         155.384         0.991033         155.382         0.133619        -138.029
61.84                    0.13381        -91.2524            0.991          155.35         0.991008         155.348         0.133801        -138.067
61.85                   0.133993        -91.2834         0.990975         155.316         0.990983         155.313         0.133984        -138.105
61.86                   0.134176        -91.3144         0.990949         155.283         0.990958         155.279         0.134166        -138.143
61.87                   0.134359        -91.3455         0.990923         155.249         0.990932         155.245         0.134348        -138.181
61.88                   0.134543        -91.3765         0.990898         155.215         0.990907         155.211          0.13453        -138.219
61.89                   0.134726        -91.4076         0.990872         155.181         0.990881         155.177         0.134712        -138.257
61.9                    0.134909        -91.4387         0.990846         155.147         0.990855         155.143         0.134895        -138.294
61.91                   0.135092        -91.4697         0.990819         155.113          0.99083         155.109         0.135077        -138.332
61.92                   0.135276        -91.5008         0.990793         155.079         0.990804         155.075         0.135259         -138.37
61.93                   0.135459         -91.532         0.990767         155.045         0.990778         155.041         0.135441        -138.408
61.94                   0.135642        -91.5631         0.990741         155.011         0.990752         155.007         0.135623        -138.446
61.95                   0.135826        -91.5942         0.990714         154.977         0.990726         154.973         0.135805        -138.484
61.96                   0.136009        -91.6254         0.990688         154.943           0.9907         154.939         0.135987        -138.521
61.97                   0.136192        -91.6565         0.990661         154.909         0.990674         154.905         0.136169        -138.559