! TOUCHSTONE file generated by CST MICROWAVE STUDIO
! Date and time: Sat Feb 17 14:29:55 2024
! Project name: MUT_rotado.cst
! Parameters = {AngX=0}
! Header version: 2018
! Port assignment regex: !\s*Touchstone port\s*([0-9]+)\s*=\s*(CST MWS port|CST DS port)\s*([0-9]+|Zmin|Zmax)\s*\(\"(.*)\"\)(\s*mode\s*([0-9]+))?.*
! Touchstone port assignment:
! Touchstone port 1 = CST MWS port 1 ("")
! Touchstone port 2 = CST MWS port 2 ("")
# GHz S MA R 376.7
60                      0.111317        -109.244          0.99328          160.71         0.993359         160.723         0.111274        -109.199
60.01                     0.1115        -109.279         0.993249         160.676         0.993341          160.69         0.111452        -109.229
60.02                   0.111683        -109.313         0.993217         160.642         0.993322         160.656          0.11163         -109.26
60.03                   0.111866        -109.348         0.993186         160.608         0.993304         160.622         0.111808        -109.291
60.04                   0.112049        -109.382         0.993155         160.573         0.993286         160.588         0.111986        -109.322
60.05                   0.112232        -109.416         0.993124         160.539         0.993267         160.554         0.112164        -109.353
60.06                   0.112416        -109.451         0.993092         160.505         0.993249          160.52         0.112342        -109.384
60.07                   0.112599        -109.485         0.993061          160.47          0.99323         160.486          0.11252        -109.415
60.08                   0.112782         -109.52          0.99303         160.436         0.993211         160.452         0.112698        -109.446
60.09                   0.112965        -109.554         0.992999         160.402         0.993193         160.418         0.112876        -109.477
60.1                    0.113149        -109.589         0.992968         160.368         0.993174         160.385         0.113055        -109.509
60.11                   0.113332        -109.623         0.992937         160.333         0.993156         160.351         0.113233         -109.54
60.12                   0.113515        -109.657         0.992906         160.299         0.993137         160.317         0.113411        -109.571
60.13                   0.113699        -109.692         0.992875         160.265         0.993118         160.283         0.113589        -109.602
60.14                   0.113882        -109.726         0.992844          160.23         0.993099         160.249         0.113767        -109.634
60.15                   0.114065        -109.761         0.992813         160.196          0.99308         160.215         0.113945        -109.665
60.16                   0.114249        -109.795         0.992782         160.162         0.993062         160.181         0.114123        -109.697
60.17                   0.114432         -109.83         0.992751         160.127         0.993043         160.147         0.114302        -109.728
60.18                   0.114616        -109.864          0.99272         160.093         0.993024         160.113          0.11448         -109.76
60.19                   0.114799        -109.898         0.992689         160.059         0.993005         160.079         0.114658        -109.791
60.2                    0.114983        -109.933         0.992659         160.024         0.992986         160.045         0.114836        -109.823
60.21                   0.115166        -109.967         0.992628          159.99         0.992967         160.012         0.115014        -109.855
60.22                    0.11535        -110.002         0.992597         159.956         0.992948         159.978         0.115192        -109.886
60.23                   0.115533        -110.036         0.992566         159.921         0.992928         159.944         0.115371        -109.918
60.24                   0.115717        -110.071         0.992536         159.887         0.992909          159.91         0.115549         -109.95
60.25                   0.115901        -110.105         0.992505         159.853          0.99289         159.876         0.115727        -109.982
60.26                   0.116084        -110.139         0.992475         159.818         0.992871         159.842         0.115905        -110.014
60.27                   0.116268        -110.174         0.992444         159.784         0.992852         159.808         0.116083        -110.046
60.28                   0.116452        -110.208         0.992414         159.749         0.992832         159.774         0.116262        -110.078
60.29                   0.116635        -110.243         0.992384         159.715         0.992813          159.74          0.11644         -110.11
60.3                    0.116819        -110.277         0.992353         159.681         0.992793         159.706         0.116618        -110.142
60.31                   0.117003        -110.312         0.992323         159.646         0.992774         159.672         0.116796        -110.174
60.32                   0.117187        -110.346         0.992293         159.612         0.992755         159.638         0.116975        -110.206
60.33                   0.117371        -110.381         0.992263         159.577         0.992735         159.605         0.117153        -110.238
60.34                   0.117554        -110.415         0.992233         159.543         0.992716         159.571         0.117331         -110.27
60.35                   0.117738         -110.45         0.992203         159.509         0.992696         159.537         0.117509        -110.303
60.36                   0.117922        -110.484         0.992173         159.474         0.992676         159.503         0.117688        -110.335
60.37                   0.118106        -110.518         0.992143          159.44         0.992657         159.469         0.117866        -110.367
60.38                    0.11829        -110.553         0.992113         159.405         0.992637         159.435         0.118044          -110.4
60.39                   0.118474        -110.587         0.992084         159.371         0.992617         159.401         0.118223        -110.432
60.4                    0.118658        -110.622         0.992054         159.336         0.992598         159.367         0.118401        -110.465
60.41                   0.118842        -110.656         0.992025         159.302         0.992578         159.333         0.118579        -110.497
60.42                   0.119026        -110.691         0.991995         159.267         0.992558         159.299         0.118758         -110.53
60.43                    0.11921        -110.725         0.991966         159.233         0.992538         159.265         0.118936        -110.562
60.44                   0.119394         -110.76         0.991937         159.198         0.992518         159.231         0.119114        -110.595
60.45                   0.119578        -110.794         0.991907         159.164         0.992498         159.197         0.119293        -110.628
60.46                   0.119762        -110.829         0.991878         159.129         0.992478         159.163         0.119471        -110.661
60.47                   0.119946        -110.863         0.991849         159.095         0.992458          159.13         0.119649        -110.693
60.48                    0.12013        -110.897         0.991821         159.061         0.992438         159.096         0.119828        -110.726
60.49                   0.120314        -110.932         0.991792         159.026         0.992418         159.062         0.120006        -110.759
60.5                    0.120498        -110.966         0.991763         158.991         0.992398         159.028         0.120185        -110.792
60.51                   0.120683        -111.001         0.991735         158.957         0.992378         158.994         0.120363        -110.825
60.52                   0.120867        -111.035         0.991706         158.922         0.992358          158.96         0.120542        -110.858
60.53                   0.121051         -111.07         0.991678         158.888         0.992337         158.926          0.12072        -110.891
60.54                   0.121235        -111.104          0.99165         158.853         0.992317         158.892         0.120899        -110.924
60.55                   0.121419        -111.139         0.991621         158.819         0.992297         158.858         0.121077        -110.957
60.56                   0.121604        -111.173         0.991593         158.784         0.992277         158.824         0.121256        -110.991
60.57                   0.121788        -111.208         0.991566          158.75         0.992256          158.79         0.121434        -111.024
60.58                   0.121972        -111.242         0.991538         158.715         0.992236         158.756         0.121613        -111.057
60.59                   0.122156        -111.277          0.99151         158.681         0.992215         158.722         0.121791         -111.09
60.6                    0.122341        -111.311         0.991483         158.646         0.992195         158.688          0.12197        -111.124
60.61                   0.122525        -111.346         0.991456         158.612         0.992174         158.654         0.122148        -111.157
60.62                   0.122709         -111.38         0.991428         158.577         0.992154          158.62         0.122327        -111.191
60.63                   0.122894        -111.415         0.991401         158.542         0.992133         158.586         0.122506        -111.224
60.64                   0.123078        -111.449         0.991375         158.508         0.992112         158.552         0.122684        -111.258
60.65                   0.123263        -111.483         0.991348         158.473         0.992092         158.518         0.122863        -111.291
60.66                   0.123447        -111.518         0.991321         158.439         0.992071         158.485         0.123042        -111.325
60.67                   0.123631        -111.552         0.991295         158.404          0.99205         158.451          0.12322        -111.359
60.68                   0.123816        -111.587         0.991269         158.369         0.992029         158.417         0.123399        -111.392
60.69                      0.124        -111.621         0.991243         158.335         0.992009         158.383         0.123578        -111.426
60.7                    0.124185        -111.656         0.991217           158.3         0.991988         158.349         0.123757         -111.46
60.71                   0.124369         -111.69         0.991191         158.266         0.991967         158.315         0.123935        -111.494
60.72                   0.124554        -111.725         0.991165         158.231         0.991946         158.281         0.124114        -111.528
60.73                   0.124738        -111.759          0.99114         158.196         0.991925         158.247         0.124293        -111.561
60.74                   0.124923        -111.794         0.991115         158.162         0.991904         158.213         0.124472        -111.595
60.75                   0.125107        -111.828          0.99109         158.127         0.991883         158.179         0.124651        -111.629
60.76                   0.125292        -111.863         0.991065         158.093         0.991862         158.145          0.12483        -111.664
60.77                   0.125476        -111.897          0.99104         158.058          0.99184         158.111         0.125009        -111.698
60.78                   0.125661        -111.932         0.991016         158.023         0.991819         158.077         0.125188        -111.732
60.79                   0.125845        -111.966         0.990992         157.989         0.991798         158.043         0.125367        -111.766
60.8                     0.12603        -112.001         0.990968         157.954         0.991777         158.009         0.125546          -111.8
60.81                   0.126215        -112.035         0.990944         157.919         0.991756         157.975         0.125725        -111.834
60.82                   0.126399         -112.07         0.990921         157.885         0.991734         157.941         0.125904        -111.869
60.83                   0.126584        -112.104         0.990897          157.85         0.991713         157.907         0.126083        -111.903
60.84                   0.126769        -112.139         0.990874         157.815         0.991691         157.873         0.126262        -111.937
60.85                   0.126953        -112.173         0.990851         157.781          0.99167         157.839         0.126441        -111.972
60.86                   0.127138        -112.208         0.990828         157.746         0.991648         157.805          0.12662        -112.006
60.87                   0.127323        -112.242         0.990806         157.712         0.991627         157.771           0.1268        -112.041
60.88                   0.127507        -112.277         0.990784         157.677         0.991605         157.737         0.126979        -112.075
60.89                   0.127692        -112.311         0.990762         157.642         0.991584         157.703         0.127158         -112.11
60.9                    0.127877        -112.346          0.99074         157.608         0.991562         157.669         0.127337        -112.145
60.91                   0.128061         -112.38         0.990719         157.573          0.99154         157.635         0.127517        -112.179
60.92                   0.128246        -112.415         0.990697         157.538         0.991519         157.601         0.127696        -112.214
60.93                   0.128431        -112.449         0.990676         157.504         0.991497         157.567         0.127876        -112.249
60.94                   0.128616        -112.484         0.990656         157.469         0.991475         157.533         0.128055        -112.284
60.95                     0.1288        -112.518         0.990635         157.434         0.991453         157.499         0.128235        -112.319
60.96                   0.128985        -112.553         0.990615           157.4         0.991431         157.465         0.128414        -112.353
60.97                    0.12917        -112.587         0.990595         157.365          0.99141         157.432         0.128594        -112.388
60.98                   0.129355        -112.622         0.990575         157.331         0.991388         157.398         0.128773        -112.423
60.99                    0.12954        -112.656         0.990556         157.296         0.991366         157.364         0.128953        -112.458
61                      0.129724        -112.691         0.990537         157.261         0.991344          157.33         0.129133        -112.493
61.01                   0.129909        -112.725         0.990518         157.227         0.991321         157.296         0.129313        -112.528
61.02                   0.130094         -112.76         0.990499         157.192         0.991299         157.262         0.129492        -112.563
61.03                   0.130279        -112.794         0.990481         157.157         0.991277         157.228         0.129672        -112.599
61.04                   0.130464        -112.829         0.990462         157.123         0.991255         157.194         0.129852        -112.634
61.05                   0.130649        -112.863         0.990445         157.088         0.991233          157.16         0.130032        -112.669
61.06                   0.130833        -112.898         0.990427         157.054         0.991211         157.126         0.130212        -112.704
61.07                   0.131018        -112.932          0.99041         157.019         0.991188         157.092         0.130392         -112.74
61.08                   0.131203        -112.967         0.990393         156.985         0.991166         157.058         0.130572        -112.775
61.09                   0.131388        -113.001         0.990376          156.95         0.991144         157.024         0.130752         -112.81
61.1                    0.131573        -113.036         0.990359         156.915         0.991121          156.99         0.130933        -112.846
61.11                   0.131758         -113.07         0.990343         156.881         0.991099         156.956         0.131113        -112.881
61.12                   0.131943        -113.105         0.990327         156.846         0.991076         156.922         0.131293        -112.917
61.13                   0.132128        -113.139         0.990311         156.812         0.991054         156.888         0.131474        -112.952
61.14                   0.132312        -113.174         0.990296         156.777         0.991031         156.854         0.131654        -112.988
61.15                   0.132497        -113.208         0.990281         156.743         0.991008          156.82         0.131834        -113.023
61.16                   0.132682        -113.243         0.990266         156.708         0.990986         156.786         0.132015        -113.059
61.17                   0.132867        -113.277         0.990251         156.674         0.990963         156.752         0.132195        -113.095
61.18                   0.133052        -113.312         0.990237         156.639          0.99094         156.718         0.132376         -113.13
61.19                   0.133237        -113.346         0.990222         156.605         0.990918         156.684         0.132557        -113.166
61.2                    0.133422        -113.381         0.990209          156.57         0.990895          156.65         0.132738        -113.202
61.21                   0.133607        -113.415         0.990195         156.536         0.990872         156.616         0.132918        -113.238
61.22                   0.133792         -113.45         0.990181         156.502         0.990849         156.582         0.133099        -113.273
61.23                   0.133977        -113.484         0.990168         156.467         0.990826         156.548          0.13328        -113.309
61.24                   0.134162        -113.519         0.990155         156.433         0.990803         156.514         0.133461        -113.345
61.25                   0.134347        -113.553         0.990142         156.398          0.99078          156.48         0.133642        -113.381
61.26                   0.134532        -113.588          0.99013         156.364         0.990757         156.446         0.133823        -113.417
61.27                   0.134717        -113.622         0.990118          156.33         0.990734         156.412         0.134005        -113.453
61.28                   0.134902        -113.657         0.990105         156.295         0.990711         156.378         0.134186        -113.489
61.29                   0.135087        -113.691         0.990094         156.261         0.990688         156.344         0.134367        -113.525
61.3                    0.135272        -113.726         0.990082         156.227         0.990664          156.31         0.134549        -113.561
61.31                   0.135457         -113.76          0.99007         156.192         0.990641         156.276          0.13473        -113.597
61.32                   0.135642        -113.795         0.990059         156.158         0.990618         156.242         0.134912        -113.633
61.33                   0.135827        -113.829         0.990048         156.124         0.990595         156.208         0.135093         -113.67
61.34                   0.136012        -113.864         0.990037          156.09         0.990571         156.174         0.135275        -113.706
61.35                   0.136197        -113.898         0.990026         156.056         0.990548          156.14         0.135457        -113.742
61.36                   0.136382        -113.932         0.990015         156.021         0.990524         156.106         0.135639        -113.778
61.37                   0.136567        -113.967         0.990004         155.987         0.990501         156.072          0.13582        -113.815
61.38                   0.136752        -114.001         0.989994         155.953         0.990477         156.038         0.136002        -113.851
61.39                   0.136937        -114.036         0.989983         155.919         0.990454         156.004         0.136184        -113.887
61.4                    0.137122         -114.07         0.989973         155.885          0.99043          155.97         0.136367        -113.923
61.41                   0.137307        -114.105         0.989963         155.851         0.990406         155.936         0.136549         -113.96
61.42                   0.137492        -114.139         0.989953         155.817         0.990383         155.902         0.136731        -113.996
61.43                   0.137677        -114.174         0.989943         155.783         0.990359         155.868         0.136914        -114.033
61.44                   0.137862        -114.208         0.989933         155.749         0.990335         155.834         0.137096        -114.069
61.45                   0.138047        -114.243         0.989923         155.715         0.990311           155.8         0.137279        -114.106
61.46                   0.138232        -114.277         0.989913         155.681         0.990288         155.766         0.137461        -114.142
61.47                   0.138417        -114.312         0.989903         155.647         0.990264         155.732         0.137644        -114.179
61.48                   0.138602        -114.346         0.989894         155.613          0.99024         155.698         0.137827        -114.215
61.49                   0.138787        -114.381         0.989884         155.579         0.990216         155.664          0.13801        -114.252
61.5                    0.138972        -114.415         0.989874         155.545         0.990192          155.63         0.138193        -114.288
61.51                   0.139157         -114.45         0.989864         155.512         0.990168         155.596         0.138376        -114.325
61.52                   0.139342        -114.484         0.989855         155.478         0.990144         155.562         0.138559        -114.361
61.53                   0.139527        -114.519         0.989845         155.444         0.990119         155.528         0.138742        -114.398
61.54                   0.139712        -114.553         0.989835          155.41         0.990095         155.494         0.138925        -114.435
61.55                   0.139897        -114.588         0.989825         155.376         0.990071          155.46         0.139109        -114.471
61.56                   0.140082        -114.622         0.989815         155.343         0.990047         155.426         0.139292        -114.508
61.57                   0.140267        -114.657         0.989805         155.309         0.990022         155.392         0.139476        -114.545
61.58                   0.140452        -114.691         0.989795         155.275         0.989998         155.358         0.139659        -114.581
61.59                   0.140637        -114.726         0.989784         155.242         0.989974         155.324         0.139843        -114.618
61.6                    0.140822         -114.76         0.989774         155.208         0.989949          155.29         0.140027        -114.655
61.61                   0.141007        -114.795         0.989763         155.174         0.989925         155.256         0.140211        -114.691
61.62                   0.141192        -114.829         0.989753         155.141           0.9899         155.222         0.140395        -114.728
61.63                   0.141377        -114.863         0.989742         155.107         0.989876         155.188         0.140579        -114.765
61.64                   0.141562        -114.898         0.989731         155.074         0.989851         155.154         0.140763        -114.802
61.65                   0.141747        -114.932          0.98972          155.04         0.989827          155.12         0.140948        -114.838
61.66                   0.141932        -114.967         0.989709         155.007         0.989802         155.086         0.141132        -114.875
61.67                   0.142117        -115.001         0.989697         154.973         0.989777         155.052         0.141317        -114.912
61.68                   0.142301        -115.036         0.989686          154.94         0.989752         155.018         0.141501        -114.949
61.69                   0.142486         -115.07         0.989674         154.906         0.989728         154.984         0.141686        -114.986
61.7                    0.142671        -115.105         0.989662         154.873         0.989703          154.95         0.141871        -115.022
61.71                   0.142856        -115.139         0.989649         154.839         0.989678         154.916         0.142056        -115.059
61.72                   0.143041        -115.174         0.989637         154.806         0.989653         154.882         0.142241        -115.096
61.73                   0.143226        -115.208         0.989624         154.773         0.989628         154.848         0.142426        -115.133
61.74                   0.143411        -115.243         0.989611         154.739         0.989603         154.814         0.142611         -115.17
61.75                   0.143596        -115.277         0.989598         154.706         0.989578          154.78         0.142796        -115.207
61.76                   0.143781        -115.311         0.989585         154.673         0.989553         154.746         0.142981        -115.243
61.77                   0.143966        -115.346         0.989571         154.639         0.989528         154.712         0.143167         -115.28
61.78                   0.144151         -115.38         0.989557         154.606         0.989503         154.678         0.143353        -115.317
61.79                   0.144336        -115.415         0.989543         154.573         0.989477         154.644         0.143538        -115.354
61.8                     0.14452        -115.449         0.989528          154.54         0.989452          154.61         0.143724        -115.391
61.81                   0.144705        -115.484         0.989513         154.506         0.989427         154.576          0.14391        -115.428
61.82                    0.14489        -115.518         0.989498         154.473         0.989402         154.542         0.144096        -115.464
61.83                   0.145075        -115.553         0.989483          154.44         0.989376         154.508         0.144282        -115.501
61.84                    0.14526        -115.587         0.989467         154.407         0.989351         154.474         0.144468        -115.538
61.85                   0.145445        -115.621         0.989451         154.374         0.989325          154.44         0.144654        -115.575
61.86                   0.145629        -115.656         0.989435          154.34           0.9893         154.406         0.144841        -115.612
61.87                   0.145814         -115.69         0.989419         154.307         0.989274         154.372         0.145027        -115.649
61.88                   0.145999        -115.725         0.989402         154.274         0.989249         154.338         0.145213        -115.685
61.89                   0.146184        -115.759         0.989385         154.241         0.989223         154.304           0.1454        -115.722
61.9                    0.146369        -115.794         0.989367         154.208         0.989197          154.27         0.145587        -115.759
61.91                   0.146553        -115.828          0.98935         154.175         0.989172         154.236         0.145774        -115.796
61.92                   0.146738        -115.862         0.989332         154.142         0.989146         154.202         0.145961        -115.833
61.93                   0.146923        -115.897         0.989313         154.108          0.98912         154.168         0.146148        -115.869
61.94                   0.147108        -115.931         0.989295         154.075         0.989094         154.134         0.146335        -115.906
61.95                   0.147292        -115.966         0.989276         154.042         0.989068           154.1         0.146522        -115.943
61.96                   0.147477            -116         0.989256         154.009         0.989042         154.066         0.146709         -115.98
61.97                   0.147662        -116.034         0.989237         153.976         0.989017         154.032         0.146896        -116.016