! TOUCHSTONE file generated by CST MICROWAVE STUDIO
! Date and time: Sat Feb 17 14:30:04 2024
! Project name: MUT_rotado.cst
! Parameters = {AngX=1}
! Header version: 2018
! Port assignment regex: !\s*Touchstone port\s*([0-9]+)\s*=\s*(CST MWS port|CST DS port)\s*([0-9]+|Zmin|Zmax)\s*\(\"(.*)\"\)(\s*mode\s*([0-9]+))?.*
! Touchstone port assignment:
! Touchstone port 1 = CST MWS port 1 ("")
! Touchstone port 2 = CST MWS port 2 ("")
# GHz S MA R 376.7
60                      0.107383        -96.1405         0.994132         161.209         0.994157         161.215         0.107374        -121.417
60.01                   0.107554         -96.173         0.994118         161.175         0.994141         161.181         0.107543        -121.454
60.02                   0.107726        -96.2055         0.994103         161.141         0.994125         161.147         0.107712         -121.49
60.03                   0.107898         -96.238         0.994088         161.106         0.994109         161.113         0.107881        -121.526
60.04                    0.10807        -96.2704         0.994074         161.072         0.994093         161.079          0.10805        -121.563
60.05                   0.108242        -96.3029         0.994059         161.038         0.994076         161.045          0.10822        -121.599
60.06                   0.108413        -96.3353         0.994044         161.004          0.99406         161.011         0.108389        -121.635
60.07                   0.108585        -96.3678         0.994029          160.97         0.994044         160.977         0.108559        -121.672
60.08                   0.108757        -96.4002         0.994014         160.936         0.994028         160.943         0.108728        -121.708
60.09                   0.108929        -96.4326         0.993999         160.902         0.994011         160.909         0.108898        -121.744
60.1                    0.109101         -96.465         0.993984         160.868         0.993995         160.875         0.109067         -121.78
60.11                   0.109273        -96.4974         0.993969         160.834         0.993978         160.841         0.109237        -121.817
60.12                   0.109445        -96.5298         0.993953           160.8         0.993962         160.807         0.109407        -121.853
60.13                   0.109617        -96.5622         0.993938         160.765         0.993945         160.773         0.109577        -121.889
60.14                   0.109789        -96.5945         0.993922         160.731         0.993928         160.739         0.109746        -121.925
60.15                   0.109962        -96.6269         0.993907         160.697         0.993911         160.705         0.109916        -121.962
60.16                   0.110134        -96.6592         0.993891         160.663         0.993895         160.671         0.110086        -121.998
60.17                   0.110306        -96.6915         0.993875         160.629         0.993878         160.637         0.110256        -122.034
60.18                   0.110478        -96.7239         0.993859         160.595         0.993861         160.603         0.110426         -122.07
60.19                    0.11065        -96.7562         0.993843         160.561         0.993844         160.569         0.110597        -122.107
60.2                    0.110823        -96.7885         0.993827         160.527         0.993826         160.535         0.110767        -122.143
60.21                   0.110995        -96.8207         0.993811         160.493         0.993809         160.501         0.110937        -122.179
60.22                   0.111167         -96.853         0.993795         160.459         0.993792         160.467         0.111107        -122.215
60.23                    0.11134        -96.8853         0.993779         160.425         0.993775         160.433         0.111278        -122.251
60.24                   0.111512        -96.9175         0.993762         160.391         0.993757         160.399         0.111448        -122.288
60.25                   0.111685        -96.9498         0.993746         160.357          0.99374         160.365         0.111619        -122.324
60.26                   0.111857         -96.982         0.993729         160.323         0.993722         160.331         0.111789         -122.36
60.27                    0.11203        -97.0142         0.993713         160.289         0.993705         160.297          0.11196        -122.396
60.28                   0.112202        -97.0464         0.993696         160.255         0.993687         160.263         0.112131        -122.432
60.29                   0.112375        -97.0787         0.993679         160.221          0.99367         160.229         0.112301        -122.468
60.3                    0.112547        -97.1108         0.993663         160.187         0.993652         160.195         0.112472        -122.505
60.31                    0.11272         -97.143         0.993646         160.153         0.993634         160.161         0.112643        -122.541
60.32                   0.112892        -97.1752         0.993629         160.119         0.993616         160.127         0.112814        -122.577
60.33                   0.113065        -97.2074         0.993611         160.085         0.993598         160.093         0.112985        -122.613
60.34                   0.113238        -97.2395         0.993594         160.051          0.99358          160.06         0.113156        -122.649
60.35                   0.113411        -97.2717         0.993577         160.017         0.993562         160.026         0.113327        -122.685
60.36                   0.113583        -97.3038          0.99356         159.983         0.993544         159.992         0.113498        -122.721
60.37                   0.113756        -97.3359         0.993542         159.949         0.993526         159.958          0.11367        -122.757
60.38                   0.113929         -97.368         0.993525         159.915         0.993508         159.924         0.113841        -122.794
60.39                   0.114102        -97.4002         0.993507         159.881         0.993489          159.89         0.114012         -122.83
60.4                    0.114275        -97.4323         0.993489         159.847         0.993471         159.856         0.114184        -122.866
60.41                   0.114447        -97.4643         0.993472         159.813         0.993452         159.822         0.114355        -122.902
60.42                    0.11462        -97.4964         0.993454         159.779         0.993434         159.788         0.114526        -122.938
60.43                   0.114793        -97.5285         0.993436         159.745         0.993415         159.754         0.114698        -122.974
60.44                   0.114966        -97.5606         0.993418         159.711         0.993397          159.72          0.11487         -123.01
60.45                   0.115139        -97.5926           0.9934         159.677         0.993378         159.686         0.115041        -123.046
60.46                   0.115312        -97.6247         0.993382         159.643         0.993359         159.652         0.115213        -123.082
60.47                   0.115485        -97.6567         0.993364         159.609         0.993341         159.618         0.115385        -123.118
60.48                   0.115658        -97.6887         0.993345         159.575         0.993322         159.584         0.115557        -123.154
60.49                   0.115831        -97.7207         0.993327         159.541         0.993303         159.551         0.115729         -123.19
60.5                    0.116005        -97.7527         0.993308         159.507         0.993284         159.517         0.115901        -123.226
60.51                   0.116178        -97.7847          0.99329         159.473         0.993265         159.483         0.116073        -123.263
60.52                   0.116351        -97.8167         0.993271         159.439         0.993246         159.449         0.116245        -123.299
60.53                   0.116524        -97.8487         0.993253         159.405         0.993226         159.415         0.116417        -123.335
60.54                   0.116697        -97.8807         0.993234         159.371         0.993207         159.381         0.116589        -123.371
60.55                   0.116871        -97.9126         0.993215         159.337         0.993188         159.347         0.116761        -123.407
60.56                   0.117044        -97.9446         0.993196         159.303         0.993169         159.313         0.116934        -123.443
60.57                   0.117217        -97.9766         0.993177         159.269         0.993149         159.279         0.117106        -123.479
60.58                   0.117391        -98.0085         0.993158         159.236          0.99313         159.245         0.117278        -123.515
60.59                   0.117564        -98.0404         0.993139         159.202          0.99311         159.211         0.117451        -123.551
60.6                    0.117737        -98.0724          0.99312         159.168         0.993091         159.178         0.117623        -123.587
60.61                   0.117911        -98.1043           0.9931         159.134         0.993071         159.144         0.117796        -123.623
60.62                   0.118084        -98.1362         0.993081           159.1         0.993051          159.11         0.117969        -123.659
60.63                   0.118258        -98.1681         0.993062         159.066         0.993031         159.076         0.118141        -123.695
60.64                   0.118431           -98.2         0.993042         159.032         0.993012         159.042         0.118314        -123.731
60.65                   0.118605        -98.2318         0.993022         158.998         0.992992         159.008         0.118487        -123.767
60.66                   0.118778        -98.2637         0.993003         158.964         0.992972         158.974          0.11866        -123.803
60.67                   0.118952        -98.2956         0.992983          158.93         0.992952          158.94         0.118833        -123.839
60.68                   0.119125        -98.3275         0.992963         158.897         0.992932         158.907         0.119006        -123.875
60.69                   0.119299        -98.3593         0.992943         158.863         0.992911         158.873         0.119179        -123.911
60.7                    0.119473        -98.3911         0.992923         158.829         0.992891         158.839         0.119352        -123.947
60.71                   0.119646         -98.423         0.992903         158.795         0.992871         158.805         0.119525        -123.983
60.72                    0.11982        -98.4548         0.992883         158.761         0.992851         158.771         0.119698        -124.019
60.73                   0.119994        -98.4866         0.992863         158.727          0.99283         158.737         0.119871        -124.055
60.74                   0.120167        -98.5184         0.992843         158.693          0.99281         158.703         0.120044        -124.091
60.75                   0.120341        -98.5503         0.992823          158.66         0.992789         158.669         0.120218        -124.127
60.76                   0.120515        -98.5821         0.992802         158.626         0.992769         158.636         0.120391        -124.163
60.77                   0.120689        -98.6138         0.992782         158.592         0.992748         158.602         0.120565        -124.199
60.78                   0.120863        -98.6456         0.992761         158.558         0.992728         158.568         0.120738        -124.234
60.79                   0.121036        -98.6774         0.992741         158.524         0.992707         158.534         0.120912         -124.27
60.8                     0.12121        -98.7092          0.99272          158.49         0.992686           158.5         0.121085        -124.306
60.81                   0.121384        -98.7409         0.992699         158.457         0.992665         158.466         0.121259        -124.342
60.82                   0.121558        -98.7727         0.992678         158.423         0.992645         158.432         0.121433        -124.378
60.83                   0.121732        -98.8044         0.992658         158.389         0.992624         158.399         0.121607        -124.414
60.84                   0.121906        -98.8362         0.992637         158.355         0.992603         158.365          0.12178         -124.45
60.85                    0.12208        -98.8679         0.992616         158.321         0.992582         158.331         0.121954        -124.486
60.86                   0.122254        -98.8996         0.992595         158.288          0.99256         158.297         0.122128        -124.522
60.87                   0.122428        -98.9314         0.992573         158.254         0.992539         158.263         0.122302        -124.558
60.88                   0.122602        -98.9631         0.992552          158.22         0.992518         158.229         0.122476        -124.594
60.89                   0.122776        -98.9948         0.992531         158.186         0.992497         158.196          0.12265         -124.63
60.9                    0.122951        -99.0265          0.99251         158.152         0.992475         158.162         0.122825        -124.666
60.91                   0.123125        -99.0582         0.992488         158.119         0.992454         158.128         0.122999        -124.702
60.92                   0.123299        -99.0898         0.992467         158.085         0.992432         158.094         0.123173        -124.738
60.93                   0.123473        -99.1215         0.992445         158.051         0.992411          158.06         0.123347        -124.773
60.94                   0.123647        -99.1532         0.992423         158.017         0.992389         158.026         0.123522        -124.809
60.95                   0.123822        -99.1849         0.992402         157.983         0.992368         157.993         0.123696        -124.845
60.96                   0.123996        -99.2165          0.99238          157.95         0.992346         157.959         0.123871        -124.881
60.97                    0.12417        -99.2482         0.992358         157.916         0.992324         157.925         0.124045        -124.917
60.98                   0.124344        -99.2798         0.992336         157.882         0.992303         157.891          0.12422        -124.953
60.99                   0.124519        -99.3115         0.992314         157.848         0.992281         157.857         0.124394        -124.989
61                      0.124693        -99.3431         0.992292         157.815         0.992259         157.824         0.124569        -125.025
61.01                   0.124867        -99.3747          0.99227         157.781         0.992237          157.79         0.124744        -125.061
61.02                   0.125042        -99.4063         0.992248         157.747         0.992215         157.756         0.124919        -125.097
61.03                   0.125216        -99.4379         0.992226         157.713         0.992193         157.722         0.125093        -125.132
61.04                   0.125391        -99.4696         0.992203          157.68         0.992171         157.688         0.125268        -125.168
61.05                   0.125565        -99.5012         0.992181         157.646         0.992148         157.655         0.125443        -125.204
61.06                    0.12574        -99.5327         0.992159         157.612         0.992126         157.621         0.125618         -125.24
61.07                   0.125914        -99.5643         0.992136         157.578         0.992104         157.587         0.125793        -125.276
61.08                   0.126089        -99.5959         0.992114         157.545         0.992082         157.553         0.125968        -125.312
61.09                   0.126263        -99.6275         0.992091         157.511         0.992059         157.519         0.126143        -125.348
61.1                    0.126438        -99.6591         0.992068         157.477         0.992037         157.486         0.126319        -125.384
61.11                   0.126612        -99.6906         0.992046         157.444         0.992014         157.452         0.126494         -125.42
61.12                   0.126787        -99.7222         0.992023          157.41         0.991992         157.418         0.126669        -125.455
61.13                   0.126962        -99.7537            0.992         157.376         0.991969         157.384         0.126845        -125.491
61.14                   0.127136        -99.7853         0.991977         157.342         0.991946         157.351          0.12702        -125.527
61.15                   0.127311        -99.8168         0.991954         157.309         0.991924         157.317         0.127195        -125.563
61.16                   0.127486        -99.8483         0.991931         157.275         0.991901         157.283         0.127371        -125.599
61.17                    0.12766        -99.8799         0.991908         157.241         0.991878         157.249         0.127546        -125.635
61.18                   0.127835        -99.9114         0.991885         157.208         0.991855         157.215         0.127722        -125.671
61.19                    0.12801        -99.9429         0.991862         157.174         0.991832         157.182         0.127898        -125.706
61.2                    0.128185        -99.9744         0.991838          157.14         0.991809         157.148         0.128073        -125.742
61.21                    0.12836        -100.006         0.991815         157.107         0.991786         157.114         0.128249        -125.778
61.22                   0.128534        -100.037         0.991791         157.073         0.991763          157.08         0.128425        -125.814
61.23                   0.128709        -100.069         0.991768         157.039          0.99174         157.047         0.128601         -125.85
61.24                   0.128884          -100.1         0.991744         157.006         0.991717         157.013         0.128777        -125.886
61.25                   0.129059        -100.132         0.991721         156.972         0.991693         156.979         0.128953        -125.922
61.26                   0.129234        -100.163         0.991697         156.938          0.99167         156.945         0.129129        -125.957
61.27                   0.129409        -100.195         0.991674         156.905         0.991647         156.912         0.129305        -125.993
61.28                   0.129584        -100.226          0.99165         156.871         0.991623         156.878         0.129481        -126.029
61.29                   0.129759        -100.258         0.991626         156.837           0.9916         156.844         0.129657        -126.065
61.3                    0.129934        -100.289         0.991602         156.804         0.991576          156.81         0.129833        -126.101
61.31                   0.130109        -100.321         0.991578          156.77         0.991553         156.777         0.130009        -126.137
61.32                   0.130284        -100.352         0.991554         156.737         0.991529         156.743         0.130186        -126.173
61.33                   0.130459        -100.384          0.99153         156.703         0.991505         156.709         0.130362        -126.208
61.34                   0.130634        -100.415         0.991506         156.669         0.991482         156.676         0.130538        -126.244
61.35                   0.130809        -100.446         0.991482         156.636         0.991458         156.642         0.130715         -126.28
61.36                   0.130984        -100.478         0.991457         156.602         0.991434         156.608         0.130891        -126.316
61.37                   0.131159        -100.509         0.991433         156.568          0.99141         156.574         0.131068        -126.352
61.38                   0.131334        -100.541         0.991409         156.535         0.991386         156.541         0.131244        -126.388
61.39                    0.13151        -100.572         0.991384         156.501         0.991362         156.507         0.131421        -126.423
61.4                    0.131685        -100.603          0.99136         156.468         0.991338         156.473         0.131598        -126.459
61.41                    0.13186        -100.635         0.991335         156.434         0.991314          156.44         0.131774        -126.495
61.42                   0.132035        -100.666         0.991311           156.4          0.99129         156.406         0.131951        -126.531
61.43                    0.13221        -100.698         0.991286         156.367         0.991266         156.372         0.132128        -126.567
61.44                   0.132386        -100.729         0.991261         156.333         0.991242         156.338         0.132305        -126.602
61.45                   0.132561         -100.76         0.991237           156.3         0.991217         156.305         0.132482        -126.638
61.46                   0.132736        -100.792         0.991212         156.266         0.991193         156.271         0.132659        -126.674
61.47                   0.132912        -100.823         0.991187         156.232         0.991168         156.237         0.132836         -126.71
61.48                   0.133087        -100.854         0.991162         156.199         0.991144         156.204         0.133013        -126.746
61.49                   0.133262        -100.886         0.991137         156.165          0.99112          156.17          0.13319        -126.782
61.5                    0.133438        -100.917         0.991112         156.132         0.991095         156.136         0.133367        -126.817
61.51                   0.133613        -100.948         0.991087         156.098          0.99107         156.103         0.133544        -126.853
61.52                   0.133789         -100.98         0.991062         156.065         0.991046         156.069         0.133721        -126.889
61.53                   0.133964        -101.011         0.991037         156.031         0.991021         156.035         0.133899        -126.925
61.54                   0.134139        -101.043         0.991011         155.998         0.990996         156.001         0.134076        -126.961
61.55                   0.134315        -101.074         0.990986         155.964         0.990972         155.968         0.134253        -126.996
61.56                    0.13449        -101.105         0.990961          155.93         0.990947         155.934         0.134431        -127.032
61.57                   0.134666        -101.136         0.990935         155.897         0.990922           155.9         0.134608        -127.068
61.58                   0.134841        -101.168          0.99091         155.863         0.990897         155.867         0.134786        -127.104
61.59                   0.135017        -101.199         0.990884          155.83         0.990872         155.833         0.134963         -127.14
61.6                    0.135193         -101.23         0.990859         155.796         0.990847         155.799         0.135141        -127.176
61.61                   0.135368        -101.262         0.990833         155.763         0.990822         155.766         0.135319        -127.211
61.62                   0.135544        -101.293         0.990808         155.729         0.990797         155.732         0.135496        -127.247
61.63                   0.135719        -101.324         0.990782         155.696         0.990771         155.699         0.135674        -127.283
61.64                   0.135895        -101.356         0.990756         155.662         0.990746         155.665         0.135852        -127.319
61.65                   0.136071        -101.387          0.99073         155.629         0.990721         155.631          0.13603        -127.355
61.66                   0.136246        -101.418         0.990705         155.595         0.990696         155.598         0.136208         -127.39
61.67                   0.136422        -101.449         0.990679         155.562          0.99067         155.564         0.136385        -127.426
61.68                   0.136598        -101.481         0.990653         155.528         0.990645          155.53         0.136563        -127.462
61.69                   0.136774        -101.512         0.990627         155.495         0.990619         155.497         0.136741        -127.498
61.7                    0.136949        -101.543         0.990601         155.461         0.990594         155.463         0.136919        -127.534
61.71                   0.137125        -101.574         0.990574         155.428         0.990568         155.429         0.137098        -127.569
61.72                   0.137301        -101.606         0.990548         155.394         0.990543         155.396         0.137276        -127.605
61.73                   0.137477        -101.637         0.990522         155.361         0.990517         155.362         0.137454        -127.641
61.74                   0.137652        -101.668         0.990496         155.327         0.990491         155.328         0.137632        -127.677
61.75                   0.137828        -101.699          0.99047         155.294         0.990466         155.295          0.13781        -127.713
61.76                   0.138004        -101.731         0.990443          155.26          0.99044         155.261         0.137989        -127.748
61.77                    0.13818        -101.762         0.990417         155.227         0.990414         155.228         0.138167        -127.784
61.78                   0.138356        -101.793          0.99039         155.193         0.990388         155.194         0.138346         -127.82
61.79                   0.138532        -101.824         0.990364          155.16         0.990362          155.16         0.138524        -127.856
61.8                    0.138708        -101.855         0.990337         155.126         0.990336         155.127         0.138703        -127.891
61.81                   0.138884        -101.887         0.990311         155.093          0.99031         155.093         0.138881        -127.927
61.82                    0.13906        -101.918         0.990284          155.06         0.990284          155.06          0.13906        -127.963
61.83                   0.139236        -101.949         0.990257         155.026         0.990258         155.026         0.139238        -127.999
61.84                   0.139412         -101.98         0.990231         154.993         0.990232         154.992         0.139417        -128.035
61.85                   0.139588        -102.011         0.990204         154.959         0.990206         154.959         0.139596         -128.07
61.86                   0.139764        -102.043         0.990177         154.926         0.990179         154.925         0.139775        -128.106
61.87                    0.13994        -102.074          0.99015         154.892         0.990153         154.892         0.139953        -128.142
61.88                   0.140116        -102.105         0.990123         154.859         0.990127         154.858         0.140132        -128.178
61.89                   0.140292        -102.136         0.990096         154.825           0.9901         154.824         0.140311        -128.214
61.9                    0.140468        -102.167         0.990069         154.792         0.990074         154.791          0.14049        -128.249
61.91                   0.140644        -102.199         0.990042         154.759         0.990047         154.757         0.140669        -128.285
61.92                    0.14082         -102.23         0.990015         154.725         0.990021         154.724         0.140848        -128.321
61.93                   0.140996        -102.261         0.989988         154.692         0.989994          154.69         0.141027        -128.357
61.94                   0.141173        -102.292         0.989961         154.658         0.989968         154.656         0.141206        -128.392
61.95                   0.141349        -102.323         0.989933         154.625         0.989941         154.623         0.141385        -128.428
61.96                   0.141525        -102.354         0.989906         154.592         0.989914         154.589         0.141565        -128.464
61.97                   0.141701        -102.385         0.989879         154.558         0.989887         154.556         0.141744          -128.5