! TOUCHSTONE file generated by CST MICROWAVE STUDIO
! Date and time: Sat Feb 17 14:30:02 2024
! Project name: MUT_rotado.cst
! Parameters = {AngX=0.75}
! Header version: 2018
! Port assignment regex: !\s*Touchstone port\s*([0-9]+)\s*=\s*(CST MWS port|CST DS port)\s*([0-9]+|Zmin|Zmax)\s*\(\"(.*)\"\)(\s*mode\s*([0-9]+))?.*
! Touchstone port assignment:
! Touchstone port 1 = CST MWS port 1 ("")
! Touchstone port 2 = CST MWS port 2 ("")
# GHz S MA R 376.7
60                      0.108062        -99.4527         0.994152         161.098          0.99407         161.102         0.108034        -118.352
60.01                   0.108241        -99.4841         0.994133         161.064         0.994053         161.068         0.108211        -118.387
60.02                   0.108421        -99.5156         0.994114         161.029         0.994037         161.033         0.108388        -118.422
60.03                     0.1086         -99.547         0.994095         160.995          0.99402         160.999         0.108565        -118.458
60.04                    0.10878        -99.5785         0.994077         160.961         0.994003         160.965         0.108742        -118.493
60.05                   0.108959          -99.61         0.994058         160.927         0.993986         160.931         0.108919        -118.528
60.06                   0.109139        -99.6415         0.994039         160.893         0.993969         160.896         0.109096        -118.563
60.07                   0.109319         -99.673          0.99402         160.858         0.993952         160.862         0.109273        -118.599
60.08                   0.109498        -99.7045            0.994         160.824         0.993935         160.828          0.10945        -118.634
60.09                   0.109678         -99.736         0.993981          160.79         0.993918         160.794         0.109627        -118.669
60.1                    0.109857        -99.7675         0.993962         160.756         0.993901          160.76         0.109805        -118.705
60.11                   0.110037        -99.7991         0.993943         160.722         0.993884         160.725         0.109982         -118.74
60.12                   0.110217        -99.8306         0.993924         160.688         0.993866         160.691         0.110159        -118.775
60.13                   0.110396        -99.8622         0.993904         160.653         0.993849         160.657         0.110336        -118.811
60.14                   0.110576        -99.8937         0.993885         160.619         0.993831         160.623         0.110514        -118.846
60.15                   0.110756        -99.9253         0.993865         160.585         0.993814         160.588         0.110691        -118.881
60.16                   0.110935        -99.9569         0.993846         160.551         0.993796         160.554         0.110869        -118.916
60.17                   0.111115        -99.9885         0.993827         160.517         0.993779          160.52         0.111046        -118.952
60.18                   0.111295         -100.02         0.993807         160.483         0.993761         160.486         0.111224        -118.987
60.19                   0.111475        -100.052         0.993787         160.449         0.993743         160.452         0.111401        -119.022
60.2                    0.111654        -100.083         0.993768         160.414         0.993725         160.417         0.111579        -119.058
60.21                   0.111834        -100.115         0.993748          160.38         0.993707         160.383         0.111756        -119.093
60.22                   0.112014        -100.147         0.993728         160.346         0.993689         160.349         0.111934        -119.128
60.23                   0.112194        -100.178         0.993709         160.312         0.993671         160.315         0.112112        -119.164
60.24                   0.112373         -100.21         0.993689         160.278         0.993653         160.281         0.112289        -119.199
60.25                   0.112553        -100.241         0.993669         160.244         0.993635         160.246         0.112467        -119.234
60.26                   0.112733        -100.273         0.993649          160.21         0.993617         160.212         0.112645         -119.27
60.27                   0.112913        -100.305         0.993629         160.175         0.993598         160.178         0.112823        -119.305
60.28                   0.113093        -100.336         0.993609         160.141          0.99358         160.144         0.113001         -119.34
60.29                   0.113272        -100.368         0.993589         160.107         0.993561          160.11         0.113179        -119.376
60.3                    0.113452          -100.4         0.993569         160.073         0.993543         160.076         0.113357        -119.411
60.31                   0.113632        -100.432         0.993549         160.039         0.993524         160.041         0.113535        -119.446
60.32                   0.113812        -100.463         0.993529         160.005         0.993506         160.007         0.113713        -119.482
60.33                   0.113992        -100.495         0.993509         159.971         0.993487         159.973         0.113891        -119.517
60.34                   0.114172        -100.527         0.993488         159.937         0.993468         159.939         0.114069        -119.552
60.35                   0.114352        -100.558         0.993468         159.903         0.993449         159.905         0.114247        -119.588
60.36                   0.114532         -100.59         0.993448         159.868         0.993431         159.871         0.114425        -119.623
60.37                   0.114711        -100.622         0.993428         159.834         0.993412         159.836         0.114603        -119.658
60.38                   0.114891        -100.654         0.993407           159.8         0.993393         159.802         0.114782        -119.694
60.39                   0.115071        -100.685         0.993387         159.766         0.993373         159.768          0.11496        -119.729
60.4                    0.115251        -100.717         0.993366         159.732         0.993354         159.734         0.115138        -119.764
60.41                   0.115431        -100.749         0.993346         159.698         0.993335           159.7         0.115317          -119.8
60.42                   0.115611        -100.781         0.993325         159.664         0.993316         159.666         0.115495        -119.835
60.43                   0.115791        -100.813         0.993304          159.63         0.993297         159.632         0.115673        -119.871
60.44                   0.115971        -100.844         0.993284         159.596         0.993277         159.597         0.115852        -119.906
60.45                   0.116151        -100.876         0.993263         159.562         0.993258         159.563          0.11603        -119.941
60.46                   0.116331        -100.908         0.993242         159.528         0.993238         159.529         0.116209        -119.977
60.47                   0.116511         -100.94         0.993222         159.493         0.993219         159.495         0.116387        -120.012
60.48                   0.116691        -100.972         0.993201         159.459         0.993199         159.461         0.116566        -120.047
60.49                   0.116871        -101.003          0.99318         159.425         0.993179         159.427         0.116745        -120.083
60.5                    0.117051        -101.035         0.993159         159.391         0.993159         159.393         0.116923        -120.118
60.51                   0.117231        -101.067         0.993138         159.357          0.99314         159.359         0.117102        -120.154
60.52                   0.117411        -101.099         0.993117         159.323          0.99312         159.325         0.117281        -120.189
60.53                   0.117591        -101.131         0.993096         159.289           0.9931          159.29         0.117459        -120.224
60.54                   0.117771        -101.163         0.993075         159.255          0.99308         159.256         0.117638         -120.26
60.55                   0.117951        -101.195         0.993054         159.221          0.99306         159.222         0.117817        -120.295
60.56                   0.118131        -101.227         0.993033         159.187          0.99304         159.188         0.117996        -120.331
60.57                   0.118311        -101.259         0.993011         159.153         0.993019         159.154         0.118175        -120.366
60.58                   0.118491         -101.29          0.99299         159.119         0.992999          159.12         0.118354        -120.401
60.59                   0.118671        -101.322         0.992969         159.085         0.992979         159.086         0.118533        -120.437
60.6                    0.118851        -101.354         0.992948         159.051         0.992958         159.052         0.118712        -120.472
60.61                   0.119031        -101.386         0.992926         159.017         0.992938         159.018         0.118891        -120.508
60.62                   0.119211        -101.418         0.992905         158.983         0.992918         158.984          0.11907        -120.543
60.63                   0.119391         -101.45         0.992883         158.948         0.992897          158.95         0.119249        -120.578
60.64                   0.119572        -101.482         0.992862         158.914         0.992876         158.915         0.119428        -120.614
60.65                   0.119752        -101.514          0.99284          158.88         0.992856         158.881         0.119607        -120.649
60.66                   0.119932        -101.546         0.992819         158.846         0.992835         158.847         0.119786        -120.685
60.67                   0.120112        -101.578         0.992797         158.812         0.992814         158.813         0.119965         -120.72
60.68                   0.120292         -101.61         0.992775         158.778         0.992793         158.779         0.120144        -120.756
60.69                   0.120472        -101.642         0.992754         158.744         0.992773         158.745         0.120324        -120.791
60.7                    0.120652        -101.674         0.992732          158.71         0.992752         158.711         0.120503        -120.826
60.71                   0.120832        -101.706          0.99271         158.676         0.992731         158.677         0.120682        -120.862
60.72                   0.121012        -101.738         0.992688         158.642         0.992709         158.643         0.120862        -120.897
60.73                   0.121192         -101.77         0.992667         158.608         0.992688         158.609         0.121041        -120.933
60.74                   0.121372        -101.802         0.992645         158.574         0.992667         158.575          0.12122        -120.968
60.75                   0.121553        -101.834         0.992623          158.54         0.992646         158.541           0.1214        -121.004
60.76                   0.121733        -101.866         0.992601         158.506         0.992625         158.507         0.121579        -121.039
60.77                   0.121913        -101.898         0.992579         158.472         0.992603         158.473         0.121759        -121.075
60.78                   0.122093        -101.931         0.992557         158.438         0.992582         158.439         0.121938         -121.11
60.79                   0.122273        -101.963         0.992534         158.404          0.99256         158.405         0.122118        -121.146
60.8                    0.122453        -101.995         0.992512          158.37         0.992539         158.371         0.122298        -121.181
60.81                   0.122633        -102.027          0.99249         158.336         0.992517         158.337         0.122477        -121.217
60.82                   0.122813        -102.059         0.992468         158.302         0.992496         158.303         0.122657        -121.252
60.83                   0.122993        -102.091         0.992446         158.268         0.992474         158.269         0.122836        -121.288
60.84                   0.123174        -102.123         0.992423         158.234         0.992452         158.235         0.123016        -121.323
60.85                   0.123354        -102.155         0.992401           158.2          0.99243         158.201         0.123196        -121.358
60.86                   0.123534        -102.187         0.992379         158.166         0.992408         158.167         0.123376        -121.394
60.87                   0.123714         -102.22         0.992356         158.132         0.992386         158.133         0.123555        -121.429
60.88                   0.123894        -102.252         0.992334         158.098         0.992364         158.099         0.123735        -121.465
60.89                   0.124074        -102.284         0.992311         158.064         0.992342         158.065         0.123915          -121.5
60.9                    0.124254        -102.316         0.992289          158.03          0.99232         158.031         0.124095        -121.536
60.91                   0.124434        -102.348         0.992266         157.996         0.992298         157.997         0.124275        -121.571
60.92                   0.124615        -102.381         0.992243         157.962         0.992276         157.963         0.124455        -121.607
60.93                   0.124795        -102.413         0.992221         157.928         0.992254         157.929         0.124635        -121.643
60.94                   0.124975        -102.445         0.992198         157.894         0.992231         157.895         0.124815        -121.678
60.95                   0.125155        -102.477         0.992175         157.861         0.992209         157.861         0.124995        -121.714
60.96                   0.125335        -102.509         0.992152         157.827         0.992186         157.827         0.125175        -121.749
60.97                   0.125515        -102.542          0.99213         157.793         0.992164         157.793         0.125355        -121.785
60.98                   0.125695        -102.574         0.992107         157.759         0.992141         157.759         0.125535         -121.82
60.99                   0.125876        -102.606         0.992084         157.725         0.992119         157.725         0.125715        -121.856
61                      0.126056        -102.638         0.992061         157.691         0.992096         157.691         0.125895        -121.891
61.01                   0.126236        -102.671         0.992038         157.657         0.992074         157.657         0.126075        -121.927
61.02                   0.126416        -102.703         0.992015         157.623         0.992051         157.623         0.126255        -121.962
61.03                   0.126596        -102.735         0.991992         157.589         0.992028         157.589         0.126436        -121.998
61.04                   0.126776        -102.768         0.991969         157.555         0.992005         157.555         0.126616        -122.033
61.05                   0.126956          -102.8         0.991946         157.521         0.991982         157.521         0.126796        -122.069
61.06                   0.127136        -102.832         0.991922         157.487         0.991959         157.487         0.126976        -122.105
61.07                   0.127316        -102.864         0.991899         157.453         0.991936         157.453         0.127157         -122.14
61.08                   0.127497        -102.897         0.991876         157.419         0.991913         157.419         0.127337        -122.176
61.09                   0.127677        -102.929         0.991853         157.385          0.99189         157.385         0.127517        -122.211
61.1                    0.127857        -102.961         0.991829         157.351         0.991867         157.351         0.127698        -122.247
61.11                   0.128037        -102.994         0.991806         157.318         0.991843         157.317         0.127878        -122.282
61.12                   0.128217        -103.026         0.991782         157.284          0.99182         157.283         0.128059        -122.318
61.13                   0.128397        -103.059         0.991759          157.25         0.991797          157.25         0.128239        -122.354
61.14                   0.128577        -103.091         0.991735         157.216         0.991773         157.216          0.12842        -122.389
61.15                   0.128757        -103.123         0.991712         157.182          0.99175         157.182           0.1286        -122.425
61.16                   0.128937        -103.156         0.991688         157.148         0.991727         157.148         0.128781         -122.46
61.17                   0.129117        -103.188         0.991665         157.114         0.991703         157.114         0.128961        -122.496
61.18                   0.129297        -103.221         0.991641          157.08         0.991679          157.08         0.129142        -122.531
61.19                   0.129478        -103.253         0.991617         157.046         0.991656         157.046         0.129322        -122.567
61.2                    0.129658        -103.285         0.991594         157.012         0.991632         157.012         0.129503        -122.603
61.21                   0.129838        -103.318          0.99157         156.978         0.991608         156.978         0.129684        -122.638
61.22                   0.130018         -103.35         0.991546         156.945         0.991584         156.944         0.129864        -122.674
61.23                   0.130198        -103.383         0.991522         156.911         0.991561          156.91         0.130045         -122.71
61.24                   0.130378        -103.415         0.991498         156.877         0.991537         156.877         0.130226        -122.745
61.25                   0.130558        -103.448         0.991474         156.843         0.991513         156.843         0.130407        -122.781
61.26                   0.130738         -103.48          0.99145         156.809         0.991489         156.809         0.130587        -122.816
61.27                   0.130918        -103.513         0.991426         156.775         0.991465         156.775         0.130768        -122.852
61.28                   0.131098        -103.545         0.991402         156.741          0.99144         156.741         0.130949        -122.888
61.29                   0.131278        -103.578         0.991378         156.707         0.991416         156.707          0.13113        -122.923
61.3                    0.131458         -103.61         0.991354         156.674         0.991392         156.673         0.131311        -122.959
61.31                   0.131638        -103.643          0.99133          156.64         0.991368         156.639         0.131492        -122.995
61.32                   0.131818        -103.675         0.991306         156.606         0.991344         156.606         0.131673         -123.03
61.33                   0.131998        -103.708         0.991282         156.572         0.991319         156.572         0.131853        -123.066
61.34                   0.132178         -103.74         0.991257         156.538         0.991295         156.538         0.132034        -123.102
61.35                   0.132358        -103.773         0.991233         156.504          0.99127         156.504         0.132215        -123.137
61.36                   0.132538        -103.805         0.991209          156.47         0.991246          156.47         0.132396        -123.173
61.37                   0.132718        -103.838         0.991184         156.437         0.991221         156.436         0.132577        -123.208
61.38                   0.132898         -103.87          0.99116         156.403         0.991197         156.402         0.132758        -123.244
61.39                   0.133078        -103.903         0.991136         156.369         0.991172         156.368          0.13294         -123.28
61.4                    0.133258        -103.936         0.991111         156.335         0.991147         156.335         0.133121        -123.315
61.41                   0.133438        -103.968         0.991086         156.301         0.991122         156.301         0.133302        -123.351
61.42                   0.133618        -104.001         0.991062         156.267         0.991098         156.267         0.133483        -123.387
61.43                   0.133798        -104.033         0.991037         156.234         0.991073         156.233         0.133664        -123.423
61.44                   0.133978        -104.066         0.991013           156.2         0.991048         156.199         0.133845        -123.458
61.45                   0.134158        -104.099         0.990988         156.166         0.991023         156.165         0.134026        -123.494
61.46                   0.134338        -104.131         0.990963         156.132         0.990998         156.132         0.134208         -123.53
61.47                   0.134517        -104.164         0.990939         156.098         0.990973         156.098         0.134389        -123.565
61.48                   0.134697        -104.197         0.990914         156.064         0.990948         156.064          0.13457        -123.601
61.49                   0.134877        -104.229         0.990889         156.031         0.990923          156.03         0.134751        -123.637
61.5                    0.135057        -104.262         0.990864         155.997         0.990897         155.996         0.134933        -123.672
61.51                   0.135237        -104.295         0.990839         155.963         0.990872         155.963         0.135114        -123.708
61.52                   0.135417        -104.327         0.990814         155.929         0.990847         155.929         0.135295        -123.744
61.53                   0.135597         -104.36         0.990789         155.895         0.990822         155.895         0.135477         -123.78
61.54                   0.135777        -104.393         0.990764         155.862         0.990796         155.861         0.135658        -123.815
61.55                   0.135956        -104.426         0.990739         155.828         0.990771         155.827         0.135839        -123.851
61.56                   0.136136        -104.458         0.990714         155.794         0.990745         155.794         0.136021        -123.887
61.57                   0.136316        -104.491         0.990689          155.76          0.99072          155.76         0.136202        -123.922
61.58                   0.136496        -104.524         0.990664         155.726         0.990694         155.726         0.136384        -123.958
61.59                   0.136676        -104.556         0.990639         155.693         0.990669         155.692         0.136565        -123.994
61.6                    0.136856        -104.589         0.990614         155.659         0.990643         155.658         0.136746         -124.03
61.61                   0.137035        -104.622         0.990588         155.625         0.990617         155.625         0.136928        -124.065
61.62                   0.137215        -104.655         0.990563         155.591         0.990592         155.591         0.137109        -124.101
61.63                   0.137395        -104.688         0.990538         155.557         0.990566         155.557         0.137291        -124.137
61.64                   0.137575         -104.72         0.990512         155.524          0.99054         155.523         0.137473        -124.173
61.65                   0.137754        -104.753         0.990487          155.49         0.990514          155.49         0.137654        -124.208
61.66                   0.137934        -104.786         0.990461         155.456         0.990488         155.456         0.137836        -124.244
61.67                   0.138114        -104.819         0.990436         155.422         0.990462         155.422         0.138017         -124.28
61.68                   0.138294        -104.852          0.99041         155.389         0.990436         155.388         0.138199        -124.316
61.69                   0.138473        -104.885         0.990385         155.355          0.99041         155.354         0.138381        -124.351
61.7                    0.138653        -104.917         0.990359         155.321         0.990384         155.321         0.138562        -124.387
61.71                   0.138833         -104.95         0.990334         155.287         0.990358         155.287         0.138744        -124.423
61.72                   0.139012        -104.983         0.990308         155.254         0.990332         155.253         0.138926        -124.459
61.73                   0.139192        -105.016         0.990282          155.22         0.990305         155.219         0.139107        -124.494
61.74                   0.139372        -105.049         0.990257         155.186         0.990279         155.186         0.139289         -124.53
61.75                   0.139551        -105.082         0.990231         155.152         0.990253         155.152         0.139471        -124.566
61.76                   0.139731        -105.115         0.990205         155.119         0.990226         155.118         0.139653        -124.602
61.77                   0.139911        -105.148         0.990179         155.085           0.9902         155.085         0.139834        -124.638
61.78                    0.14009        -105.181         0.990153         155.051         0.990174         155.051         0.140016        -124.673
61.79                    0.14027        -105.213         0.990128         155.017         0.990147         155.017         0.140198        -124.709
61.8                     0.14045        -105.246         0.990102         154.984         0.990121         154.983          0.14038        -124.745
61.81                   0.140629        -105.279         0.990076          154.95         0.990094          154.95         0.140562        -124.781
61.82                   0.140809        -105.312          0.99005         154.916         0.990067         154.916         0.140743        -124.817
61.83                   0.140988        -105.345         0.990024         154.882         0.990041         154.882         0.140925        -124.852
61.84                   0.141168        -105.378         0.989998         154.849         0.990014         154.848         0.141107        -124.888
61.85                   0.141347        -105.411         0.989971         154.815         0.989987         154.815         0.141289        -124.924
61.86                   0.141527        -105.444         0.989945         154.781          0.98996         154.781         0.141471         -124.96
61.87                   0.141707        -105.477         0.989919         154.748         0.989934         154.747         0.141653        -124.996
61.88                   0.141886         -105.51         0.989893         154.714         0.989907         154.714         0.141835        -125.032
61.89                   0.142066        -105.543         0.989867          154.68          0.98988          154.68         0.142017        -125.067
61.9                    0.142245        -105.576          0.98984         154.647         0.989853         154.646         0.142199        -125.103
61.91                   0.142425        -105.609         0.989814         154.613         0.989826         154.613         0.142381        -125.139
61.92                   0.142604        -105.642         0.989788         154.579         0.989799         154.579         0.142563        -125.175
61.93                   0.142784        -105.675         0.989761         154.545         0.989772         154.545         0.142745        -125.211
61.94                   0.142963        -105.709         0.989735         154.512         0.989745         154.512         0.142927        -125.247
61.95                   0.143142        -105.742         0.989708         154.478         0.989717         154.478         0.143109        -125.282
61.96                   0.143322        -105.775         0.989682         154.444          0.98969         154.444         0.143291        -125.318
61.97                   0.143501        -105.808         0.989655         154.411         0.989663         154.411         0.143473        -125.354