! TOUCHSTONE file generated by CST MICROWAVE STUDIO
! Date and time: Wed Feb 21 23:45:52 2024
! Project name: material_desal.cst
! Header version: 2018
! Port assignment regex: !\s*Touchstone port\s*([0-9]+)\s*=\s*(CST MWS port|CST DS port)\s*([0-9]+|Zmin|Zmax)\s*\(\"(.*)\"\)(\s*mode\s*([0-9]+))?.*
! Touchstone port assignment:
! Touchstone port 1 = CST MWS port 1 ("")
! Touchstone port 2 = CST MWS port 2 ("")
# GHz S MA R 376.7
60                      0.356596         168.092         0.634171         109.679         0.634247         109.645         0.355814         168.079
60.01                   0.356164         167.739         0.632836         109.681         0.632906         109.646         0.355379          167.72
60.02                   0.355728         167.388         0.631516         109.684         0.631581         109.649         0.354938         167.364
60.03                   0.355288         167.039         0.630212         109.688          0.63027         109.653         0.354492          167.01
60.04                   0.354845         166.692         0.628924         109.694         0.628976         109.658         0.354041         166.659
60.05                     0.3544         166.348         0.627653           109.7         0.627698         109.665         0.353586         166.311
60.06                   0.353952         166.007         0.626399         109.707         0.626438         109.672         0.353128         165.965
60.07                   0.353503         165.668         0.625163         109.715         0.625195          109.68         0.352667         165.623
60.08                   0.353053         165.331         0.623945         109.724         0.623969         109.688         0.352205         165.284
60.09                   0.352604         164.998         0.622746         109.733         0.622763         109.698         0.351742         164.948
60.1                    0.352155         164.667         0.621565         109.743         0.621575         109.708          0.35128         164.615
60.11                   0.351707          164.34         0.620404         109.753         0.620406         109.718         0.350818         164.286
60.12                   0.351262         164.015         0.619263         109.763         0.619258         109.729         0.350359          163.96
60.13                   0.350819         163.694         0.618141         109.774         0.618129          109.74         0.349902         163.638
60.14                   0.350381         163.376          0.61704         109.785          0.61702         109.752          0.34945         163.319
60.15                   0.349947         163.061         0.615959         109.795         0.615932         109.763         0.349003         163.004
60.16                   0.349519          162.75         0.614898         109.806         0.614865         109.774         0.348562         162.694
60.17                   0.349098         162.442         0.613858         109.816         0.613819         109.785         0.348129         162.387
60.18                   0.348684         162.138         0.612838         109.825         0.612793         109.795         0.347704         162.084
60.19                   0.348279         161.837         0.611839         109.834         0.611789         109.805         0.347289         161.785
60.2                    0.347884         161.541         0.610861         109.842         0.610806         109.813         0.346885          161.49
60.21                     0.3475         161.248         0.609904         109.849         0.609844         109.821         0.346494           161.2
60.22                   0.347127          160.96         0.608967         109.855         0.608902         109.828         0.346116         160.914
60.23                   0.346768         160.675          0.60805         109.859         0.607982         109.834         0.345754         160.633
60.24                   0.346424         160.395         0.607153         109.862         0.607082         109.838         0.345408         160.356
60.25                   0.346096          160.12         0.606275         109.864         0.606202          109.84         0.345081         160.084
60.26                   0.345785         159.849         0.605417         109.863         0.605341         109.841         0.344773         159.816
60.27                   0.345493         159.582         0.604577          109.86           0.6045         109.839         0.344487         159.554
60.28                   0.345221         159.321         0.603756         109.855         0.603678         109.835         0.344223         159.296
60.29                   0.344972         159.064         0.602952         109.847         0.602874         109.828         0.343985         159.043
60.3                    0.344747         158.812         0.602165         109.837         0.602088         109.819         0.343773         158.796
60.31                   0.344547         158.566         0.601394         109.823         0.601318         109.807          0.34359         158.554
60.32                   0.344376         158.324         0.600638         109.806         0.600564         109.791         0.343438         158.316
60.33                   0.344235         158.089         0.599897         109.785         0.599824         109.771         0.343319         158.085
60.34                   0.344126         157.859         0.599168         109.761         0.599098         109.748         0.343234         157.858
60.35                   0.344052         157.634         0.598451         109.732         0.598385         109.721         0.343187         157.637
60.36                   0.344015         157.416         0.597744         109.699         0.597682         109.689          0.34318         157.422
60.37                   0.344018         157.203         0.597046         109.661         0.596989         109.652         0.343215         157.212
60.38                   0.344064         156.997         0.596355         109.618         0.596304          109.61         0.343295         157.009
60.39                   0.344156         156.797          0.59567          109.57         0.595625         109.562         0.343423         156.811
60.4                    0.344297         156.604         0.594989         109.515         0.594949         109.509         0.343603         156.619
60.41                   0.344492         156.417         0.594309         109.454         0.594276         109.449         0.343837         156.433
60.42                   0.344743         156.236         0.593628         109.387         0.593602         109.383         0.344128         156.253
60.43                   0.345055         156.063         0.592943         109.313         0.592926          109.31         0.344482         156.079
60.44                   0.345433         155.897         0.592253         109.231         0.592243         109.228         0.344901         155.912
60.45                   0.345881         155.738         0.591553         109.141         0.591553         109.139          0.34539         155.751
60.46                   0.346405         155.586         0.590842         109.042          0.59085         109.042         0.345953         155.597
60.47                   0.347009         155.442         0.590114         108.935         0.590131         108.935         0.346596         155.449
60.48                   0.347701         155.305         0.589367         108.818         0.589393         108.818         0.347325         155.308
60.49                   0.348487         155.176         0.588596          108.69         0.588632         108.691         0.348145         155.174
60.5                    0.349374         155.054         0.587797         108.552         0.587843         108.553         0.349062         155.047
60.51                   0.350369          154.94         0.586965         108.402          0.58702         108.403         0.350084         154.927
60.52                   0.351483         154.834         0.586093         108.239         0.586158         108.241         0.351219         154.814
60.53                   0.352723         154.735         0.585177         108.063         0.585252         108.066         0.352476         154.708
60.54                     0.3541         154.644          0.58421         107.873         0.584295         107.876         0.353863          154.61
60.55                   0.355625         154.561         0.583184         107.668         0.583278         107.671         0.355391         154.518
60.56                   0.357311         154.484         0.582092         107.447         0.582195          107.45         0.357072         154.434
60.57                   0.359171         154.415         0.580923         107.209         0.581036         107.211         0.358919         154.357
60.58                   0.361219         154.353          0.57967         106.952         0.579792         106.954         0.360946         154.286
60.59                   0.363473         154.297         0.578321         106.675         0.578451         106.677         0.363169         154.222
60.6                     0.36595         154.247         0.576863         106.376         0.577001         106.378         0.365605         154.165
60.61                   0.368671         154.202         0.575282         106.055         0.575429         106.056         0.368274         154.113
60.62                   0.371656         154.161         0.573565         105.708         0.573718         105.709         0.371199         154.067
60.63                   0.374931         154.124         0.571693         105.335         0.571852         105.335         0.374403         154.025
60.64                   0.378524         154.089         0.569646         104.932         0.569811         104.932         0.377913         153.987
60.65                   0.382463         154.055         0.567404         104.498         0.567573         104.497         0.381762         153.952
60.66                   0.386783          154.02          0.56494         104.029         0.565113         104.027         0.385982         153.917
60.67                   0.391522         153.982         0.562227         103.522         0.562402         103.519         0.390612         153.882
60.68                   0.396721         153.938         0.559231         102.974         0.559407          102.97         0.395697         153.843
60.69                   0.402428         153.886         0.555914         102.381          0.55609         102.375         0.401283         153.799
60.7                    0.408694         153.822         0.552233         101.737         0.552407         101.731         0.407426         153.745
60.71                   0.415579         153.743         0.548138         101.039         0.548308         101.031         0.414187         153.678
60.72                   0.423149         153.642         0.543569          100.28         0.543734          100.27         0.421635         153.593
60.73                   0.431478         153.515         0.538458         99.4524         0.538614         99.4416         0.429847         153.485
60.74                   0.440648         153.355         0.532723         98.5495         0.532869         98.5371         0.438909         153.346
60.75                   0.450753         153.153          0.52627          97.562         0.526402         97.5477          0.44892         153.169
60.76                   0.461895         152.901         0.518984         96.4792         0.519099         96.4631         0.459987         152.943
60.77                    0.47419         152.588         0.510731         95.2889         0.510825         95.2709         0.472231         152.658
60.78                   0.487765         152.201         0.501351          93.977         0.501419         93.9569         0.485787           152.3
60.79                   0.502759         151.724          0.49065         92.5265         0.490688         92.5043         0.500799         151.854
60.8                    0.519321          151.14         0.478398         90.9178         0.478399         90.8935         0.517426           151.3
60.81                   0.537611         150.428         0.464315         89.1274         0.464274          89.101         0.535836         150.618
60.82                   0.557788         149.564         0.448069         87.1276         0.447978         87.0993         0.556197         149.781
60.83                   0.580009         148.519         0.429257         84.8853         0.429108         84.8553         0.578672          148.76
60.84                   0.604405         147.262         0.407403         82.3606         0.407188         82.3295         0.603402         147.521
60.85                   0.631061         145.754         0.381947         79.5054         0.381656          79.474         0.630476         146.026
60.86                   0.659977         143.956          0.35224         76.2598         0.351864         76.2296         0.659891         144.232
60.87                    0.69101         141.821         0.317561         72.5474         0.317094         72.5208         0.691496         142.091
60.88                   0.723799         139.304         0.277153          68.262         0.276588         68.2431         0.724907         139.557
60.89                   0.757672          136.36         0.230296         63.2324         0.229633         63.2285         0.759409         136.584
60.9                    0.791541         132.953         0.176459         57.1007         0.175704         57.1256         0.793852         133.135
60.91                   0.823826         129.063         0.115582         48.7412         0.114742         48.8243         0.826571         129.194
60.92                    0.85246         124.698         0.049229         30.5719        0.0482922         30.7165         0.855409         124.772
60.93                   0.875051         119.905        0.0334619        -101.979        0.0338275        -103.595         0.877899         119.921
60.94                   0.889241         114.775         0.107665        -131.253         0.108267        -131.718         0.891659         114.741
60.95                   0.893223         109.443         0.185866        -141.986           0.1864        -142.273         0.894937         109.373
60.96                   0.886239         104.073         0.262255        -150.292         0.262666        -150.503         0.887102         103.986
60.97                    0.86882         98.8334         0.333703        -157.654         0.333973        -157.817         0.868842         98.7513
60.98                   0.842638         93.8729          0.39804        -164.355         0.398178        -164.484         0.841967         93.8126
60.99                   0.810043         89.2997         0.454147        -170.454         0.454176        -170.556         0.808907         89.2739
61                      0.773524         85.1769          0.50185        -175.966           0.5018        -176.046         0.772164         85.1923
61.01                   0.735289         81.5257         0.541663         179.087         0.541561         179.025          0.73391         81.5837
61.02                   0.697054         78.3357         0.574483         174.671         0.574354         174.623          0.69581         78.4338
61.03                    0.66001         75.5763         0.601345         170.741         0.601206         170.704         0.658999         75.7093
61.04                   0.624898         73.2061         0.623264         167.246         0.623129         167.218         0.624166         73.3674
61.05                   0.592106         71.1795         0.641154         164.136         0.641031         164.116         0.591669         71.3623
61.06                   0.561783         69.4518         0.655792         161.365         0.655685          161.35         0.561632         69.6497
61.07                   0.533921         67.9813          0.66782         158.888         0.667732         158.878         0.534032          68.188
61.08                   0.508416         66.7301         0.677757         156.669          0.67769         156.662         0.508757         66.9405
61.09                   0.485114         65.6651         0.686021         154.672         0.685973         154.668          0.48565         65.8748
61.1                    0.463837         64.7575          0.69294         152.869         0.692911         152.868         0.464534         64.9629
61.11                   0.444402         63.9825         0.698777         151.236         0.698765         151.237         0.445229         64.1807
61.12                   0.426633         63.3189         0.703739         149.751         0.703744         149.753          0.42756         63.5078
61.13                   0.410362         62.7486         0.707993         148.396         0.708011         148.399         0.411362         62.9268
61.14                   0.395436         62.2563         0.711667         147.154         0.711698         147.159         0.396486         62.4227
61.15                   0.381715         61.8289         0.714869         146.014         0.714911         146.019         0.382796         61.9832
61.16                   0.369074         61.4555         0.717681         144.962         0.717732         144.968         0.370169         61.5975
61.17                     0.3574         61.1266         0.720172         143.989         0.720231         143.996         0.358497         61.2565
61.18                   0.346595         60.8343         0.722396         143.087         0.722463         143.095         0.347682         60.9527
61.19                   0.336569         60.5719         0.724398         142.248          0.72447         142.256         0.337638         60.6794
61.2                    0.327245         60.3337         0.726214         141.465         0.726291         141.474         0.328288         60.4312
61.21                   0.318552         60.1149         0.727874         140.732         0.727955         140.742         0.319565         60.2034
61.22                   0.310428         59.9114         0.729402         140.046         0.729487         140.056         0.311408         59.9918
61.23                   0.302819         59.7198         0.730818         139.401         0.730906         139.411         0.303763         59.7932
61.24                   0.295676          59.537          0.73214         138.793          0.73223         138.804         0.296583         59.6045
61.25                   0.288955         59.3607         0.733381         138.219         0.733472          138.23         0.289826         59.4234
61.26                   0.282617         59.1887         0.734553         137.677         0.734644         137.688         0.283452         59.2477
61.27                   0.276629         59.0194         0.735665         137.163         0.735757         137.175         0.277429         59.0757
61.28                    0.27096         58.8513         0.736725         136.674         0.736817         136.687         0.271727         58.9057
61.29                   0.265581         58.6831         0.737741          136.21         0.737833         136.223         0.266316         58.7367
61.3                    0.260468         58.5139         0.738718         135.767         0.738809         135.781         0.261175         58.5673
61.31                   0.255599         58.3427         0.739661         135.345         0.739752         135.359         0.256279         58.3968
61.32                   0.250954          58.169         0.740574         134.942         0.740664         134.956          0.25161         58.2244
61.33                   0.246515          57.992         0.741461         134.556          0.74155         134.571          0.24715         58.0494
61.34                   0.242265         57.8115         0.742324         134.185         0.742413         134.201         0.242881         57.8713
61.35                    0.23819          57.627         0.743167          133.83         0.743255         133.846         0.238791         57.6896
61.36                   0.234276         57.4382         0.743992         133.489         0.744078         133.506         0.234864          57.504
61.37                   0.230511          57.245           0.7448          133.16         0.744885         133.178         0.231088         57.3143
61.38                   0.226885         57.0471         0.745593         132.844         0.745678         132.862         0.227454         57.1201
61.39                   0.223386         56.8446         0.746372         132.539         0.746456         132.558         0.223949         56.9214
61.4                    0.220007         56.6372          0.74714         132.245         0.747223         132.264         0.220566          56.718
61.41                   0.216738         56.4251         0.747896         131.961         0.747979          131.98         0.217295         56.5098
61.42                   0.213571         56.2082         0.748642         131.686         0.748724         131.706         0.214129         56.2968
61.43                     0.2105         55.9865         0.749379          131.42         0.749461         131.441          0.21106         56.0789
61.44                   0.207519         55.7602         0.750108         131.162         0.750189         131.184         0.208081         55.8563
61.45                    0.20462         55.5293         0.750828         130.913          0.75091         130.935         0.205187         55.6289
61.46                   0.201799         55.2939         0.751542         130.671         0.751623         130.693         0.202371         55.3969
61.47                   0.199049         55.0541         0.752249         130.436         0.752331         130.459         0.199629         55.1603
61.48                   0.196367         54.8102          0.75295         130.208         0.753032         130.232         0.196954         54.9192
61.49                   0.193748         54.5622         0.753646         129.986         0.753729         130.011         0.194342         54.6738
61.5                    0.191187         54.3104         0.754338         129.771         0.754421         129.796          0.19179         54.4243
61.51                   0.188681         54.0549         0.755025         129.562         0.755109         129.587         0.189293         54.1709
61.52                   0.186226          53.796         0.755708         129.358         0.755793         129.384         0.186846         53.9137
61.53                   0.183818         53.5339         0.756388          129.16         0.756474         129.187         0.184447         53.6529
61.54                   0.181454         53.2689         0.757066         128.968         0.757153         128.995         0.182092         53.3889
61.55                    0.17913         53.0012         0.757741          128.78          0.75783         128.808         0.179777          53.122
61.56                   0.176844         52.7311         0.758416         128.598         0.758506         128.626         0.177499         52.8523
61.57                   0.174594          52.459          0.75909         128.421         0.759181         128.449         0.175256         52.5803
61.58                   0.172375         52.1852         0.759764         128.248         0.759857         128.276         0.173045         52.3064
61.59                   0.170186         51.9101         0.760439          128.08         0.760533         128.108         0.170863         52.0308
61.6                    0.168023         51.6341         0.761116         127.916         0.761212         127.945         0.168706         51.7541
61.61                   0.165885         51.3577         0.761795         127.757         0.761893         127.786         0.166574         51.4767
61.62                   0.163769         51.0814         0.762479         127.602         0.762577         127.631         0.164463         51.1992
61.63                   0.161673         50.8057         0.763167         127.451         0.763267         127.481          0.16237         50.9221
61.64                   0.159594         50.5312         0.763861         127.305         0.763962         127.335         0.160294          50.646
61.65                   0.157531         50.2586         0.764563         127.163         0.764664         127.192         0.158233         50.3717
61.66                   0.155481         49.9886         0.765274         127.025         0.765375         127.054         0.156184            50.1
61.67                   0.153441         49.7222         0.765994         126.891         0.766095          126.92         0.154145         49.8316
61.68                   0.151411           49.46         0.766728         126.761         0.766828          126.79         0.152114         49.5675
61.69                   0.149388         49.2033         0.767475         126.636         0.767574         126.664          0.15009         49.3088
61.7                     0.14737         48.9531         0.768238         126.514         0.768335         126.542         0.148069         49.0567
61.71                   0.145355         48.7106          0.76902         126.396         0.769114         126.424         0.146052         48.8123
61.72                   0.143343         48.4773         0.769822         126.282         0.769913          126.31         0.144035         48.5773
61.73                    0.14133         48.2548         0.770649         126.173         0.770734           126.2         0.142017         48.3532
61.74                   0.139315         48.0447         0.771502         126.067         0.771581         126.093         0.139997         48.1417
61.75                   0.137298         47.8492         0.772385         125.965         0.772457         125.991         0.137974          47.945
61.76                   0.135276         47.6703         0.773302         125.868         0.773365         125.893         0.135946         47.7653
61.77                    0.13325         47.5107         0.774256         125.774         0.774309         125.798         0.133912         47.6051
61.78                   0.131217          47.373         0.775252         125.684         0.775293         125.707         0.131873         47.4673
61.79                   0.129178         47.2605         0.776295         125.598         0.776322         125.621         0.129827         47.3551
61.8                    0.127133         47.1767          0.77739         125.516         0.777401         125.538         0.127774          47.272
61.81                   0.125081         47.1255         0.778542         125.438         0.778535         125.459         0.125716          47.222
61.82                   0.123025         47.1114         0.779758         125.363         0.779729         125.383         0.123654         47.2096
61.83                   0.120965         47.1394         0.781044         125.292         0.780992         125.311         0.121589         47.2397
61.84                   0.118906         47.2149         0.782408         125.225         0.782328         125.242         0.119525          47.318
61.85                   0.116849         47.3442         0.783856          125.16         0.783747         125.177         0.117465         47.4504
61.86                     0.1148         47.5339         0.785398         125.098         0.785256         125.115         0.115416         47.6436
61.87                   0.112767         47.7915         0.787042         125.039         0.786863         125.055         0.113383          47.905
61.88                   0.110756          48.125         0.788797         124.982         0.788579         124.997         0.111376         48.2424
61.89                   0.108779         48.5429         0.790674         124.927         0.790412         124.942         0.109405          48.664
61.9                    0.106849          49.054         0.792681         124.873         0.792373         124.888         0.107483         49.1785
61.91                   0.104982         49.6675         0.794831         124.819         0.794473         124.834         0.105628         49.7944
61.92                   0.103198         50.3921         0.797132         124.764         0.796722          124.78         0.103859         50.5202
61.93                   0.101518         51.2358         0.799596         124.709         0.799132         124.725         0.102199         51.3633
61.94                  0.0999711         52.2054         0.802233          124.65         0.801712         124.668         0.100674         52.3297
61.95                  0.0985874         53.3049         0.805052         124.588         0.804474         124.608        0.0993151         53.4227
61.96                   0.097402         54.5352          0.80806         124.521         0.807425         124.543        0.0981573         54.6425
61.97                  0.0964535         55.8923         0.811266         124.447         0.810574         124.472        0.0972378         55.9845