! TOUCHSTONE file generated by CST MICROWAVE STUDIO
! Date and time: Sat Feb 17 14:30:06 2024
! Project name: MUT_rotado.cst
! Parameters = {AngX=1.25}
! Header version: 2018
! Port assignment regex: !\s*Touchstone port\s*([0-9]+)\s*=\s*(CST MWS port|CST DS port)\s*([0-9]+|Zmin|Zmax)\s*\(\"(.*)\"\)(\s*mode\s*([0-9]+))?.*
! Touchstone port assignment:
! Touchstone port 1 = CST MWS port 1 ("")
! Touchstone port 2 = CST MWS port 2 ("")
# GHz S MA R 376.7
60                      0.105943        -92.8178         0.994232         161.301         0.994221         161.298         0.105924        -124.572
60.01                   0.106107          -92.85         0.994217         161.267         0.994205         161.265         0.106082        -124.614
60.02                   0.106272        -92.8822         0.994201         161.233         0.994188         161.232         0.106241        -124.655
60.03                   0.106436        -92.9143         0.994186         161.199         0.994172         161.198         0.106399        -124.697
60.04                     0.1066        -92.9465         0.994171         161.166         0.994156         161.165         0.106558        -124.738
60.05                   0.106764        -92.9786         0.994155         161.132         0.994139         161.131         0.106717         -124.78
60.06                   0.106929        -93.0107          0.99414         161.098         0.994123         161.098         0.106875        -124.821
60.07                   0.107093        -93.0428         0.994124         161.064         0.994106         161.065         0.107034        -124.862
60.08                   0.107258        -93.0749         0.994109          161.03          0.99409         161.031         0.107193        -124.904
60.09                   0.107423         -93.107         0.994093         160.997         0.994073         160.998         0.107352        -124.945
60.1                    0.107587        -93.1391         0.994077         160.963         0.994057         160.964         0.107511        -124.986
60.11                   0.107752        -93.1712         0.994061         160.929          0.99404         160.931          0.10767        -125.027
60.12                   0.107917        -93.2033         0.994045         160.895         0.994023         160.898          0.10783        -125.068
60.13                   0.108082        -93.2353         0.994029         160.862         0.994007         160.864         0.107989        -125.109
60.14                   0.108247        -93.2674         0.994013         160.828          0.99399         160.831         0.108148        -125.149
60.15                   0.108412        -93.2994         0.993997         160.794         0.993973         160.797         0.108308         -125.19
60.16                   0.108577        -93.3314         0.993981          160.76         0.993956         160.764         0.108467        -125.231
60.17                   0.108742        -93.3635         0.993965         160.726         0.993939          160.73         0.108627        -125.271
60.18                   0.108908        -93.3955         0.993949         160.693         0.993922         160.697         0.108787        -125.312
60.19                   0.109073        -93.4275         0.993933         160.659         0.993905         160.664         0.108946        -125.352
60.2                    0.109239        -93.4595         0.993916         160.625         0.993888          160.63         0.109106        -125.393
60.21                   0.109404        -93.4915           0.9939         160.591         0.993871         160.597         0.109266        -125.433
60.22                    0.10957        -93.5234         0.993883         160.558         0.993854         160.563         0.109426        -125.474
60.23                   0.109735        -93.5554         0.993867         160.524         0.993837          160.53         0.109586        -125.514
60.24                   0.109901        -93.5874          0.99385          160.49          0.99382         160.496         0.109746        -125.554
60.25                   0.110067        -93.6193         0.993834         160.456         0.993802         160.463         0.109907        -125.594
60.26                   0.110233        -93.6513         0.993817         160.423         0.993785          160.43         0.110067        -125.634
60.27                   0.110399        -93.6832           0.9938         160.389         0.993768         160.396         0.110227        -125.674
60.28                   0.110565        -93.7151         0.993783         160.355          0.99375         160.363         0.110388        -125.714
60.29                   0.110731         -93.747         0.993766         160.321         0.993733         160.329         0.110548        -125.754
60.3                    0.110897        -93.7789         0.993749         160.287         0.993715         160.296         0.110709        -125.794
60.31                   0.111063        -93.8109         0.993732         160.254         0.993698         160.262          0.11087        -125.833
60.32                   0.111229        -93.8427         0.993715          160.22          0.99368         160.229          0.11103        -125.873
60.33                   0.111396        -93.8746         0.993698         160.186         0.993663         160.196         0.111191        -125.913
60.34                   0.111562        -93.9065         0.993681         160.152         0.993645         160.162         0.111352        -125.952
60.35                   0.111729        -93.9384         0.993664         160.119         0.993627         160.129         0.111513        -125.992
60.36                   0.111895        -93.9703         0.993647         160.085          0.99361         160.095         0.111674        -126.031
60.37                   0.112062        -94.0021         0.993629         160.051         0.993592         160.062         0.111835        -126.071
60.38                   0.112229         -94.034         0.993612         160.017         0.993574         160.028         0.111996         -126.11
60.39                   0.112395        -94.0658         0.993594         159.983         0.993556         159.995         0.112157        -126.149
60.4                    0.112562        -94.0976         0.993577          159.95         0.993539         159.961         0.112319        -126.189
60.41                   0.112729        -94.1295         0.993559         159.916         0.993521         159.928          0.11248        -126.228
60.42                   0.112896        -94.1613         0.993542         159.882         0.993503         159.894         0.112642        -126.267
60.43                   0.113063        -94.1931         0.993524         159.848         0.993485         159.861         0.112803        -126.306
60.44                    0.11323        -94.2249         0.993506         159.815         0.993467         159.828         0.112965        -126.345
60.45                   0.113397        -94.2567         0.993488         159.781         0.993449         159.794         0.113126        -126.384
60.46                   0.113564        -94.2885          0.99347         159.747         0.993431         159.761         0.113288        -126.423
60.47                   0.113732        -94.3203         0.993452         159.713         0.993412         159.727          0.11345        -126.461
60.48                   0.113899        -94.3521         0.993434         159.679         0.993394         159.694         0.113612          -126.5
60.49                   0.114066        -94.3839         0.993416         159.646         0.993376          159.66         0.113773        -126.539
60.5                    0.114234        -94.4157         0.993398         159.612         0.993358         159.627         0.113935        -126.578
60.51                   0.114401        -94.4474          0.99338         159.578          0.99334         159.593         0.114097        -126.616
60.52                   0.114569        -94.4792         0.993362         159.544         0.993321          159.56         0.114259        -126.655
60.53                   0.114737        -94.5109         0.993344         159.511         0.993303         159.526         0.114422        -126.693
60.54                   0.114904        -94.5427         0.993325         159.477         0.993284         159.493         0.114584        -126.731
60.55                   0.115072        -94.5744         0.993307         159.443         0.993266         159.459         0.114746         -126.77
60.56                    0.11524        -94.6062         0.993289         159.409         0.993248         159.426         0.114908        -126.808
60.57                   0.115408        -94.6379          0.99327         159.375         0.993229         159.392         0.115071        -126.846
60.58                   0.115576        -94.6696         0.993252         159.342          0.99321         159.359         0.115233        -126.884
60.59                   0.115744        -94.7013         0.993233         159.308         0.993192         159.325         0.115396        -126.923
60.6                    0.115912         -94.733         0.993214         159.274         0.993173         159.292         0.115558        -126.961
60.61                    0.11608        -94.7648         0.993196          159.24         0.993155         159.258         0.115721        -126.999
60.62                   0.116248        -94.7965         0.993177         159.207         0.993136         159.225         0.115884        -127.037
60.63                   0.116416        -94.8282         0.993158         159.173         0.993117         159.191         0.116046        -127.074
60.64                   0.116584        -94.8598         0.993139         159.139         0.993098         159.158         0.116209        -127.112
60.65                   0.116753        -94.8915          0.99312         159.105          0.99308         159.125         0.116372         -127.15
60.66                   0.116921        -94.9232         0.993101         159.071         0.993061         159.091         0.116535        -127.188
60.67                    0.11709        -94.9549         0.993082         159.038         0.993042         159.058         0.116698        -127.225
60.68                   0.117258        -94.9866         0.993063         159.004         0.993023         159.024         0.116861        -127.263
60.69                   0.117427        -95.0182         0.993044          158.97         0.993004         158.991         0.117024        -127.301
60.7                    0.117595        -95.0499         0.993025         158.936         0.992985         158.957         0.117187        -127.338
60.71                   0.117764        -95.0816         0.993006         158.903         0.992966         158.924          0.11735        -127.375
60.72                   0.117933        -95.1132         0.992986         158.869         0.992947          158.89         0.117513        -127.413
60.73                   0.118101        -95.1449         0.992967         158.835         0.992928         158.857         0.117677         -127.45
60.74                    0.11827        -95.1765         0.992947         158.801         0.992909         158.823          0.11784        -127.487
60.75                   0.118439        -95.2081         0.992928         158.767         0.992889         158.789         0.118003        -127.525
60.76                   0.118608        -95.2398         0.992908         158.734          0.99287         158.756         0.118167        -127.562
60.77                   0.118777        -95.2714         0.992889           158.7         0.992851         158.722          0.11833        -127.599
60.78                   0.118946         -95.303         0.992869         158.666         0.992832         158.689         0.118494        -127.636
60.79                   0.119115        -95.3347          0.99285         158.632         0.992812         158.655         0.118657        -127.673
60.8                    0.119284        -95.3663          0.99283         158.599         0.992793         158.622         0.118821         -127.71
60.81                   0.119454        -95.3979          0.99281         158.565         0.992774         158.588         0.118985        -127.747
60.82                   0.119623        -95.4295          0.99279         158.531         0.992754         158.555         0.119149        -127.783
60.83                   0.119792        -95.4611          0.99277         158.497         0.992735         158.521         0.119312         -127.82
60.84                   0.119961        -95.4927          0.99275         158.463         0.992715         158.488         0.119476        -127.857
60.85                   0.120131        -95.5243          0.99273          158.43         0.992696         158.454          0.11964        -127.893
60.86                     0.1203        -95.5559          0.99271         158.396         0.992676         158.421         0.119804         -127.93
60.87                    0.12047        -95.5875          0.99269         158.362         0.992657         158.387         0.119968        -127.966
60.88                   0.120639        -95.6191          0.99267         158.328         0.992637         158.354         0.120132        -128.003
60.89                   0.120809        -95.6507          0.99265         158.295         0.992617          158.32         0.120296        -128.039
60.9                    0.120978        -95.6823          0.99263         158.261         0.992598         158.287          0.12046        -128.076
60.91                   0.121148        -95.7139         0.992609         158.227         0.992578         158.253         0.120625        -128.112
60.92                   0.121318        -95.7455         0.992589         158.193         0.992558          158.22         0.120789        -128.148
60.93                   0.121488         -95.777         0.992569          158.16         0.992538         158.186         0.120953        -128.184
60.94                   0.121657        -95.8086         0.992548         158.126         0.992519         158.153         0.121117         -128.22
60.95                   0.121827        -95.8402         0.992528         158.092         0.992499         158.119         0.121282        -128.256
60.96                   0.121997        -95.8717         0.992507         158.058         0.992479         158.085         0.121446        -128.292
60.97                   0.122167        -95.9033         0.992487         158.024         0.992459         158.052         0.121611        -128.328
60.98                   0.122337        -95.9349         0.992466         157.991         0.992439         158.018         0.121775        -128.364
60.99                   0.122507        -95.9664         0.992445         157.957         0.992419         157.985          0.12194          -128.4
61                      0.122677         -95.998         0.992425         157.923         0.992399         157.951         0.122104        -128.435
61.01                   0.122847        -96.0295         0.992404         157.889         0.992379         157.918         0.122269        -128.471
61.02                   0.123017        -96.0611         0.992383         157.856         0.992359         157.884         0.122434        -128.507
61.03                   0.123188        -96.0926         0.992362         157.822         0.992339         157.851         0.122598        -128.542
61.04                   0.123358        -96.1242         0.992341         157.788         0.992319         157.817         0.122763        -128.577
61.05                   0.123528        -96.1557          0.99232         157.754         0.992298         157.783         0.122928        -128.613
61.06                   0.123698        -96.1873         0.992299         157.721         0.992278          157.75         0.123093        -128.648
61.07                   0.123869        -96.2188         0.992278         157.687         0.992258         157.716         0.123258        -128.683
61.08                   0.124039        -96.2503         0.992257         157.653         0.992238         157.683         0.123423        -128.719
61.09                   0.124209        -96.2819         0.992236         157.619         0.992217         157.649         0.123588        -128.754
61.1                     0.12438        -96.3134         0.992214         157.585         0.992197         157.616         0.123753        -128.789
61.11                    0.12455         -96.345         0.992193         157.552         0.992177         157.582         0.123918        -128.824
61.12                   0.124721        -96.3765         0.992172         157.518         0.992156         157.549         0.124083        -128.859
61.13                   0.124891         -96.408          0.99215         157.484         0.992136         157.515         0.124248        -128.894
61.14                   0.125062        -96.4395         0.992129          157.45         0.992115         157.481         0.124414        -128.928
61.15                   0.125233        -96.4711         0.992107         157.417         0.992095         157.448         0.124579        -128.963
61.16                   0.125403        -96.5026         0.992086         157.383         0.992074         157.414         0.124744        -128.998
61.17                   0.125574        -96.5341         0.992064         157.349         0.992054         157.381          0.12491        -129.032
61.18                   0.125745        -96.5656         0.992043         157.315         0.992033         157.347         0.125075        -129.067
61.19                   0.125915        -96.5972         0.992021         157.282         0.992013         157.314         0.125241        -129.101
61.2                    0.126086        -96.6287         0.991999         157.248         0.991992          157.28         0.125406        -129.136
61.21                   0.126257        -96.6602         0.991978         157.214         0.991971         157.246         0.125572         -129.17
61.22                   0.126428        -96.6917         0.991956          157.18         0.991951         157.213         0.125737        -129.204
61.23                   0.126599        -96.7232         0.991934         157.147          0.99193         157.179         0.125903        -129.238
61.24                    0.12677        -96.7548         0.991912         157.113         0.991909         157.146         0.126069        -129.272
61.25                    0.12694        -96.7863          0.99189         157.079         0.991888         157.112         0.126235        -129.306
61.26                   0.127111        -96.8178         0.991868         157.045         0.991867         157.078         0.126401         -129.34
61.27                   0.127282        -96.8493         0.991846         157.011         0.991847         157.045         0.126567        -129.374
61.28                   0.127453        -96.8808         0.991824         156.978         0.991826         157.011         0.126733        -129.408
61.29                   0.127624        -96.9124         0.991802         156.944         0.991805         156.978         0.126899        -129.441
61.3                    0.127795        -96.9439          0.99178          156.91         0.991784         156.944         0.127065        -129.475
61.31                   0.127966        -96.9754         0.991757         156.876         0.991763          156.91         0.127231        -129.508
61.32                   0.128137        -97.0069         0.991735         156.843         0.991742         156.877         0.127397        -129.542
61.33                   0.128308        -97.0384         0.991713         156.809         0.991721         156.843         0.127564        -129.575
61.34                    0.12848        -97.0699          0.99169         156.775           0.9917          156.81          0.12773        -129.609
61.35                   0.128651        -97.1015         0.991668         156.741         0.991679         156.776         0.127896        -129.642
61.36                   0.128822         -97.133         0.991646         156.708         0.991658         156.742         0.128063        -129.675
61.37                   0.128993        -97.1645         0.991623         156.674         0.991636         156.709          0.12823        -129.708
61.38                   0.129164         -97.196           0.9916          156.64         0.991615         156.675         0.128396        -129.741
61.39                   0.129335        -97.2275         0.991578         156.606         0.991594         156.642         0.128563        -129.774
61.4                    0.129507         -97.259         0.991555         156.573         0.991573         156.608          0.12873        -129.806
61.41                   0.129678        -97.2906         0.991533         156.539         0.991551         156.574         0.128897        -129.839
61.42                   0.129849        -97.3221          0.99151         156.505          0.99153         156.541         0.129064        -129.872
61.43                    0.13002        -97.3536         0.991487         156.471         0.991509         156.507         0.129231        -129.904
61.44                   0.130191        -97.3851         0.991464         156.438         0.991488         156.473         0.129399        -129.936
61.45                   0.130363        -97.4167         0.991441         156.404         0.991466          156.44         0.129566        -129.969
61.46                   0.130534        -97.4482         0.991419          156.37         0.991445         156.406         0.129734        -130.001
61.47                   0.130705        -97.4797         0.991396         156.336         0.991423         156.373         0.129901        -130.033
61.48                   0.130876        -97.5112         0.991373         156.303         0.991402         156.339         0.130069        -130.065
61.49                   0.131048        -97.5428          0.99135         156.269          0.99138         156.305         0.130237        -130.097
61.5                    0.131219        -97.5743         0.991326         156.235         0.991359         156.272         0.130405        -130.129
61.51                    0.13139        -97.6059         0.991303         156.201         0.991337         156.238         0.130573        -130.161
61.52                   0.131562        -97.6374          0.99128         156.168         0.991316         156.204         0.130741        -130.192
61.53                   0.131733        -97.6689         0.991257         156.134         0.991294         156.171          0.13091        -130.224
61.54                   0.131904        -97.7005         0.991234           156.1         0.991272         156.137         0.131078        -130.255
61.55                   0.132075         -97.732          0.99121         156.066         0.991251         156.103         0.131247        -130.287
61.56                   0.132247        -97.7636         0.991187         156.033         0.991229          156.07         0.131416        -130.318
61.57                   0.132418        -97.7951         0.991164         155.999         0.991207         156.036         0.131585        -130.349
61.58                   0.132589        -97.8267          0.99114         155.965         0.991186         156.002         0.131754         -130.38
61.59                    0.13276        -97.8583         0.991117         155.931         0.991164         155.969         0.131923        -130.411
61.6                    0.132932        -97.8898         0.991093         155.898         0.991142         155.935         0.132093        -130.442
61.61                   0.133103        -97.9214          0.99107         155.864          0.99112         155.901         0.132263        -130.473
61.62                   0.133274         -97.953         0.991046          155.83         0.991098         155.868         0.132433        -130.503
61.63                   0.133445        -97.9845         0.991023         155.797         0.991076         155.834         0.132603        -130.534
61.64                   0.133616        -98.0161         0.990999         155.763         0.991054           155.8         0.132773        -130.564
61.65                   0.133787        -98.0477         0.990975         155.729         0.991032         155.767         0.132944        -130.595
61.66                   0.133958        -98.0793         0.990952         155.695          0.99101         155.733         0.133115        -130.625
61.67                    0.13413        -98.1109         0.990928         155.662         0.990988         155.699         0.133286        -130.655
61.68                   0.134301        -98.1425         0.990904         155.628         0.990966         155.666         0.133457        -130.685
61.69                   0.134472        -98.1741          0.99088         155.594         0.990944         155.632         0.133629        -130.715
61.7                    0.134643        -98.2057         0.990856          155.56         0.990922         155.598         0.133801        -130.745
61.71                   0.134814        -98.2374         0.990832         155.527           0.9909         155.565         0.133973        -130.774
61.72                   0.134985         -98.269         0.990808         155.493         0.990878         155.531         0.134146        -130.804
61.73                   0.135155        -98.3006         0.990784         155.459         0.990856         155.497         0.134319        -130.834
61.74                   0.135326        -98.3323          0.99076         155.425         0.990833         155.464         0.134492        -130.863
61.75                   0.135497        -98.3639         0.990736         155.392         0.990811          155.43         0.134665        -130.892
61.76                   0.135668        -98.3956         0.990712         155.358         0.990789         155.396         0.134839        -130.922
61.77                   0.135839        -98.4273         0.990688         155.324         0.990767         155.362         0.135013        -130.951
61.78                   0.136009        -98.4589         0.990663         155.291         0.990744         155.329         0.135188         -130.98
61.79                    0.13618        -98.4906         0.990639         155.257         0.990722         155.295         0.135363        -131.009
61.8                     0.13635        -98.5223         0.990615         155.223         0.990699         155.261         0.135538        -131.038
61.81                   0.136521         -98.554         0.990591         155.189         0.990677         155.228         0.135714        -131.067
61.82                   0.136691        -98.5858         0.990566         155.156         0.990654         155.194         0.135891        -131.096
61.83                   0.136861        -98.6175         0.990542         155.122         0.990632          155.16         0.136067        -131.125
61.84                   0.137032        -98.6492         0.990517         155.088         0.990609         155.126         0.136244        -131.153
61.85                   0.137202         -98.681         0.990493         155.054         0.990587         155.093         0.136422        -131.182
61.86                   0.137372        -98.7128         0.990468         155.021         0.990564         155.059           0.1366        -131.211
61.87                   0.137542        -98.7446         0.990444         154.987         0.990541         155.025         0.136779        -131.239
61.88                   0.137712        -98.7764         0.990419         154.953         0.990519         154.992         0.136958        -131.268
61.89                   0.137882        -98.8082         0.990394          154.92         0.990496         154.958         0.137138        -131.296
61.9                    0.138051          -98.84          0.99037         154.886         0.990473         154.924         0.137318        -131.325
61.91                   0.138221        -98.8719         0.990345         154.852         0.990451          154.89         0.137498        -131.353
61.92                   0.138391        -98.9038          0.99032         154.818         0.990428         154.857          0.13768        -131.381
61.93                    0.13856        -98.9357         0.990296         154.785         0.990405         154.823         0.137861         -131.41
61.94                   0.138729        -98.9676         0.990271         154.751         0.990382         154.789         0.138044        -131.438
61.95                   0.138898        -98.9995         0.990246         154.717         0.990359         154.755         0.138227        -131.467
61.96                   0.139067        -99.0315         0.990221         154.684         0.990336         154.721          0.13841        -131.495
61.97                   0.139236        -99.0635         0.990196          154.65         0.990313         154.688         0.138594        -131.524