! TOUCHSTONE file generated by CST MICROWAVE STUDIO
! Date and time: Wed Feb 21 09:08:37 2024
! Project name: material_prueba.cst
! Parameters = {Y=0.75}
! Header version: 2018
! Port assignment regex: !\s*Touchstone port\s*([0-9]+)\s*=\s*(CST MWS port|CST DS port)\s*([0-9]+|Zmin|Zmax)\s*\(\"(.*)\"\)(\s*mode\s*([0-9]+))?.*
! Touchstone port assignment:
! Touchstone port 1 = CST MWS port 1 ("")
! Touchstone port 2 = CST MWS port 2 ("")
# GHz S MA R 376.7
60                      0.106404        -118.695         0.994201         161.658         0.994481          161.67         0.106196        -97.9819
60.01                   0.106561        -118.716         0.994195         161.624         0.994471         161.636         0.106327        -97.9627
60.02                   0.106719        -118.736         0.994189         161.591         0.994462         161.602         0.106457        -97.9443
60.03                   0.106876        -118.756         0.994183         161.557         0.994452         161.569         0.106586        -97.9267
60.04                   0.107033        -118.777         0.994177         161.523         0.994442         161.535         0.106714        -97.9099
60.05                   0.107191        -118.797         0.994171          161.49         0.994432         161.502         0.106841        -97.8938
60.06                   0.107348        -118.818         0.994165         161.456         0.994422         161.468         0.106967        -97.8787
60.07                   0.107506        -118.839         0.994158         161.423         0.994412         161.434         0.107092        -97.8643
60.08                   0.107664         -118.86         0.994151         161.389         0.994402         161.401         0.107216        -97.8508
60.09                   0.107821        -118.881         0.994144         161.356         0.994391         161.367         0.107339        -97.8382
60.1                    0.107979        -118.902         0.994137         161.322          0.99438         161.333         0.107461        -97.8264
60.11                   0.108136        -118.924         0.994129         161.289          0.99437           161.3         0.107583        -97.8156
60.12                   0.108294        -118.945         0.994122         161.255         0.994359         161.266         0.107703        -97.8056
60.13                   0.108452        -118.967         0.994114         161.221         0.994347         161.233         0.107822        -97.7965
60.14                    0.10861        -118.989         0.994106         161.188         0.994336         161.199         0.107941        -97.7884
60.15                   0.108767        -119.011         0.994098         161.154         0.994325         161.165         0.108059        -97.7812
60.16                   0.108925        -119.033          0.99409         161.121         0.994313         161.132         0.108176         -97.775
60.17                   0.109083        -119.055         0.994081         161.087         0.994301         161.098         0.108293        -97.7697
60.18                   0.109241        -119.077         0.994072         161.054         0.994289         161.064         0.108408        -97.7654
60.19                   0.109399          -119.1         0.994064          161.02         0.994277         161.031         0.108524        -97.7621
60.2                    0.109557        -119.122         0.994055         160.987         0.994265         160.997         0.108638        -97.7597
60.21                   0.109715        -119.145         0.994045         160.953         0.994253         160.964         0.108752        -97.7583
60.22                   0.109873        -119.168         0.994036          160.92          0.99424          160.93         0.108865        -97.7579
60.23                   0.110031        -119.191         0.994027         160.886         0.994228         160.896         0.108978        -97.7586
60.24                   0.110189        -119.214         0.994017         160.853         0.994215         160.863         0.109091        -97.7602
60.25                   0.110348        -119.237         0.994007         160.819         0.994202         160.829         0.109203        -97.7628
60.26                   0.110506        -119.261         0.993997         160.786         0.994189         160.796         0.109314        -97.7665
60.27                   0.110664        -119.284         0.993987         160.752         0.994175         160.762         0.109425        -97.7712
60.28                   0.110822        -119.308         0.993976         160.719         0.994162         160.728         0.109536        -97.7768
60.29                   0.110981        -119.332         0.993966         160.685         0.994148         160.695         0.109647        -97.7836
60.3                    0.111139        -119.355         0.993955         160.652         0.994135         160.661         0.109757        -97.7913
60.31                   0.111298        -119.379         0.993944         160.618         0.994121         160.628         0.109868        -97.8001
60.32                   0.111456        -119.404         0.993933         160.585         0.994107         160.594         0.109978        -97.8098
60.33                   0.111615        -119.428         0.993922         160.551         0.994093          160.56         0.110088        -97.8206
60.34                   0.111773        -119.452         0.993911         160.518         0.994079         160.527         0.110198        -97.8325
60.35                   0.111932        -119.477         0.993899         160.484         0.994064         160.493         0.110308        -97.8453
60.36                   0.112091        -119.501         0.993887         160.451          0.99405          160.46         0.110418        -97.8591
60.37                    0.11225        -119.526         0.993876         160.417         0.994035         160.426         0.110528         -97.874
60.38                   0.112408        -119.551         0.993864         160.384          0.99402         160.393         0.110638        -97.8898
60.39                   0.112567        -119.576         0.993851          160.35         0.994005         160.359         0.110749        -97.9067
60.4                    0.112726        -119.601         0.993839         160.317          0.99399         160.326         0.110859        -97.9245
60.41                   0.112885        -119.627         0.993827         160.283         0.993975         160.292          0.11097        -97.9434
60.42                   0.113044        -119.652         0.993814          160.25         0.993959         160.258         0.111081        -97.9632
60.43                   0.113203        -119.678         0.993801         160.216         0.993944         160.225         0.111193        -97.9839
60.44                   0.113362        -119.703         0.993788         160.183         0.993928         160.191         0.111305        -98.0057
60.45                   0.113522        -119.729         0.993775          160.15         0.993913         160.158         0.111417        -98.0283
60.46                   0.113681        -119.755         0.993762         160.116         0.993897         160.124          0.11153         -98.052
60.47                    0.11384        -119.781         0.993748         160.083         0.993881         160.091         0.111643        -98.0765
60.48                      0.114        -119.807         0.993735         160.049         0.993864         160.057         0.111757        -98.1019
60.49                   0.114159        -119.834         0.993721         160.016         0.993848         160.024         0.111871        -98.1283
60.5                    0.114318         -119.86         0.993707         159.982         0.993832          159.99         0.111986        -98.1555
60.51                   0.114478        -119.887         0.993693         159.949         0.993815         159.956         0.112101        -98.1836
60.52                   0.114638        -119.913         0.993679         159.915         0.993798         159.923         0.112218        -98.2126
60.53                   0.114797         -119.94         0.993664         159.882         0.993781         159.889         0.112335        -98.2424
60.54                   0.114957        -119.967          0.99365         159.849         0.993764         159.856         0.112452         -98.273
60.55                   0.115117        -119.994         0.993635         159.815         0.993747         159.822         0.112571        -98.3045
60.56                   0.115277        -120.022          0.99362         159.782          0.99373         159.789          0.11269        -98.3367
60.57                   0.115437        -120.049         0.993605         159.748         0.993713         159.755          0.11281        -98.3697
60.58                   0.115597        -120.076          0.99359         159.715         0.993695         159.722         0.112931        -98.4035
60.59                   0.115757        -120.104         0.993575         159.682         0.993677         159.688         0.113053         -98.438
60.6                    0.115917        -120.132          0.99356         159.648          0.99366         159.655         0.113176        -98.4733
60.61                   0.116077         -120.16         0.993544         159.615         0.993642         159.621           0.1133        -98.5093
60.62                   0.116238        -120.188         0.993528         159.581         0.993624         159.588         0.113425        -98.5459
60.63                   0.116398        -120.216         0.993512         159.548         0.993605         159.554         0.113551        -98.5833
60.64                   0.116559        -120.244         0.993496         159.515         0.993587         159.521         0.113678        -98.6213
60.65                   0.116719        -120.273          0.99348         159.481         0.993569         159.487         0.113806        -98.6599
60.66                    0.11688        -120.301         0.993464         159.448          0.99355         159.454         0.113935        -98.6991
60.67                   0.117041         -120.33         0.993448         159.414         0.993532          159.42         0.114065         -98.739
60.68                   0.117201        -120.358         0.993431         159.381         0.993513         159.387         0.114196        -98.7794
60.69                   0.117362        -120.387         0.993414         159.348         0.993494         159.353         0.114328        -98.8204
60.7                    0.117523        -120.416         0.993398         159.314         0.993475          159.32         0.114462        -98.8619
60.71                   0.117684        -120.445         0.993381         159.281         0.993456         159.286         0.114596         -98.904
60.72                   0.117846        -120.475         0.993363         159.248         0.993436         159.253         0.114732        -98.9465
60.73                   0.118007        -120.504         0.993346         159.214         0.993417         159.219         0.114869        -98.9896
60.74                   0.118168        -120.534         0.993329         159.181         0.993397         159.186         0.115007        -99.0331
60.75                    0.11833        -120.563         0.993311         159.148         0.993378         159.152         0.115147        -99.0771
60.76                   0.118491        -120.593         0.993294         159.114         0.993358         159.119         0.115287        -99.1214
60.77                   0.118653        -120.623         0.993276         159.081         0.993338         159.086         0.115429        -99.1662
60.78                   0.118815        -120.653         0.993258         159.048         0.993318         159.052         0.115572        -99.2114
60.79                   0.118977        -120.683          0.99324         159.014         0.993298         159.019         0.115716         -99.257
60.8                    0.119138        -120.713         0.993222         158.981         0.993278         158.985         0.115862        -99.3029
60.81                   0.119301        -120.744         0.993203         158.948         0.993257         158.952         0.116009        -99.3491
60.82                   0.119463        -120.774         0.993185         158.914         0.993237         158.918         0.116157        -99.3957
60.83                   0.119625        -120.805         0.993166         158.881         0.993216         158.885         0.116306        -99.4425
60.84                   0.119787        -120.836         0.993147         158.848         0.993196         158.851         0.116456        -99.4897
60.85                    0.11995        -120.867         0.993129         158.814         0.993175         158.818         0.116608        -99.5371
60.86                   0.120112        -120.898          0.99311         158.781         0.993154         158.785         0.116761        -99.5848
60.87                   0.120275        -120.929          0.99309         158.748         0.993133         158.751         0.116915        -99.6327
60.88                   0.120438         -120.96         0.993071         158.714         0.993112         158.718          0.11707        -99.6808
60.89                   0.120601        -120.992         0.993052         158.681          0.99309         158.684         0.117227        -99.7291
60.9                    0.120764        -121.023         0.993032         158.648         0.993069         158.651         0.117385        -99.7776
60.91                   0.120927        -121.055         0.993013         158.614         0.993047         158.617         0.117544        -99.8263
60.92                    0.12109        -121.086         0.992993         158.581         0.993026         158.584         0.117704        -99.8751
60.93                   0.121254        -121.118         0.992973         158.548         0.993004         158.551         0.117866        -99.9241
60.94                   0.121417         -121.15         0.992953         158.514         0.992982         158.517         0.118029        -99.9732
60.95                   0.121581        -121.182         0.992933         158.481          0.99296         158.484         0.118193        -100.022
60.96                   0.121745        -121.215         0.992913         158.448         0.992938          158.45         0.118358        -100.072
60.97                   0.121909        -121.247         0.992892         158.415         0.992916         158.417         0.118524        -100.121
60.98                   0.122073        -121.279         0.992872         158.381         0.992894         158.383         0.118691        -100.171
60.99                   0.122237        -121.312         0.992851         158.348         0.992871          158.35          0.11886         -100.22
61                      0.122402        -121.345          0.99283         158.315         0.992849         158.317          0.11903         -100.27
61.01                   0.122566        -121.378         0.992809         158.281         0.992826         158.283         0.119201        -100.319
61.02                   0.122731         -121.41         0.992788         158.248         0.992804          158.25         0.119373        -100.369
61.03                   0.122896        -121.444         0.992767         158.215         0.992781         158.217         0.119546        -100.419
61.04                    0.12306        -121.477         0.992746         158.182         0.992758         158.183          0.11972        -100.468
61.05                   0.123226         -121.51         0.992725         158.148         0.992735          158.15         0.119895        -100.518
61.06                   0.123391        -121.543         0.992703         158.115         0.992712         158.116         0.120072        -100.568
61.07                   0.123556        -121.577         0.992682         158.082         0.992688         158.083         0.120249        -100.617
61.08                   0.123722        -121.611          0.99266         158.049         0.992665          158.05         0.120428        -100.667
61.09                   0.123887        -121.644         0.992638         158.015         0.992642         158.016         0.120607        -100.717
61.1                    0.124053        -121.678         0.992616         157.982         0.992618         157.983         0.120788        -100.766
61.11                   0.124219        -121.712         0.992594         157.949         0.992594          157.95         0.120969        -100.816
61.12                   0.124385        -121.746         0.992572         157.916         0.992571         157.916         0.121152        -100.865
61.13                   0.124552         -121.78          0.99255         157.882         0.992547         157.883         0.121335        -100.914
61.14                   0.124718        -121.815         0.992527         157.849         0.992523         157.849          0.12152        -100.964
61.15                   0.124885        -121.849         0.992505         157.816         0.992499         157.816         0.121705        -101.013
61.16                   0.125052        -121.884         0.992482         157.783         0.992475         157.783         0.121892        -101.062
61.17                   0.125219        -121.918          0.99246         157.749         0.992451         157.749         0.122079        -101.111
61.18                   0.125386        -121.953         0.992437         157.716         0.992426         157.716         0.122267         -101.16
61.19                   0.125553        -121.988         0.992414         157.683         0.992402         157.683         0.122456        -101.209
61.2                    0.125721        -122.023         0.992391          157.65         0.992377         157.649         0.122646        -101.257
61.21                   0.125888        -122.058         0.992368         157.617         0.992353         157.616         0.122837        -101.306
61.22                   0.126056        -122.093         0.992344         157.583         0.992328         157.583         0.123028        -101.354
61.23                   0.126224        -122.129         0.992321          157.55         0.992303         157.549         0.123221        -101.403
61.24                   0.126393        -122.164         0.992298         157.517         0.992278         157.516         0.123414        -101.451
61.25                   0.126561        -122.199         0.992274         157.484         0.992253         157.483         0.123608        -101.499
61.26                    0.12673        -122.235          0.99225          157.45         0.992228         157.449         0.123803        -101.547
61.27                   0.126899        -122.271         0.992226         157.417         0.992203         157.416         0.123998        -101.594
61.28                   0.127068        -122.307         0.992203         157.384         0.992178         157.383         0.124195        -101.642
61.29                   0.127237        -122.342         0.992179         157.351         0.992152          157.35         0.124392        -101.689
61.3                    0.127406        -122.378         0.992154         157.318         0.992127         157.316          0.12459        -101.737
61.31                   0.127576        -122.415          0.99213         157.284         0.992101         157.283         0.124788        -101.784
61.32                   0.127746        -122.451         0.992106         157.251         0.992076          157.25         0.124987        -101.831
61.33                   0.127916        -122.487         0.992081         157.218          0.99205         157.216         0.125187        -101.878
61.34                   0.128086        -122.523         0.992057         157.185         0.992024         157.183         0.125388        -101.924
61.35                   0.128257         -122.56         0.992032         157.152         0.991998          157.15         0.125589        -101.971
61.36                   0.128428        -122.597         0.992008         157.119         0.991972         157.117          0.12579        -102.017
61.37                   0.128598        -122.633         0.991983         157.085         0.991946         157.083         0.125993        -102.063
61.38                    0.12877         -122.67         0.991958         157.052          0.99192          157.05         0.126196        -102.109
61.39                   0.128941        -122.707         0.991933         157.019         0.991893         157.017         0.126399        -102.155
61.4                    0.129113        -122.744         0.991908         156.986         0.991867         156.983         0.126604        -102.201
61.41                   0.129284        -122.781         0.991882         156.953         0.991841          156.95         0.126808        -102.246
61.42                   0.129456        -122.818         0.991857          156.92         0.991814         156.917         0.127014        -102.292
61.43                   0.129629        -122.855         0.991832         156.886         0.991787         156.884         0.127219        -102.337
61.44                   0.129801        -122.893         0.991806         156.853         0.991761          156.85         0.127426        -102.382
61.45                   0.129974         -122.93          0.99178          156.82         0.991734         156.817         0.127633        -102.427
61.46                   0.130147        -122.968         0.991755         156.787         0.991707         156.784          0.12784        -102.471
61.47                    0.13032        -123.005         0.991729         156.754          0.99168         156.751         0.128048        -102.516
61.48                   0.130494        -123.043         0.991703         156.721         0.991653         156.717         0.128256         -102.56
61.49                   0.130667        -123.081         0.991677         156.688         0.991626         156.684         0.128465        -102.604
61.5                    0.130841        -123.118         0.991651         156.654         0.991599         156.651         0.128674        -102.648
61.51                   0.131015        -123.156         0.991625         156.621         0.991571         156.618         0.128884        -102.692
61.52                    0.13119        -123.194         0.991598         156.588         0.991544         156.584         0.129094        -102.735
61.53                   0.131365        -123.232         0.991572         156.555         0.991517         156.551         0.129304        -102.779
61.54                    0.13154         -123.27         0.991546         156.522         0.991489         156.518         0.129515        -102.822
61.55                   0.131715        -123.309         0.991519         156.489         0.991461         156.485         0.129726        -102.865
61.56                    0.13189        -123.347         0.991492         156.456         0.991434         156.452         0.129938        -102.908
61.57                   0.132066        -123.385         0.991466         156.423         0.991406         156.418          0.13015        -102.951
61.58                   0.132242        -123.424         0.991439         156.389         0.991378         156.385         0.130363        -102.993
61.59                   0.132418        -123.462         0.991412         156.356          0.99135         156.352         0.130575        -103.036
61.6                    0.132595        -123.501         0.991385         156.323         0.991322         156.319         0.130789        -103.078
61.61                   0.132772         -123.54         0.991358          156.29         0.991294         156.286         0.131002         -103.12
61.62                   0.132949        -123.578         0.991331         156.257         0.991266         156.252         0.131216        -103.162
61.63                   0.133126        -123.617         0.991303         156.224         0.991238         156.219          0.13143        -103.204
61.64                   0.133304        -123.656         0.991276         156.191         0.991209         156.186         0.131644        -103.246
61.65                   0.133481        -123.695         0.991248         156.158         0.991181         156.153         0.131859        -103.287
61.66                    0.13366        -123.734         0.991221         156.125         0.991153          156.12         0.132074        -103.328
61.67                   0.133838        -123.773         0.991193         156.092         0.991124         156.086         0.132289        -103.369
61.68                   0.134017        -123.812         0.991166         156.058         0.991095         156.053         0.132504         -103.41
61.69                   0.134196        -123.851         0.991138         156.025         0.991067          156.02          0.13272        -103.451
61.7                    0.134375         -123.89          0.99111         155.992         0.991038         155.987         0.132936        -103.492
61.71                   0.134555         -123.93         0.991082         155.959         0.991009         155.954         0.133152        -103.533
61.72                   0.134735        -123.969         0.991054         155.926          0.99098         155.921         0.133369        -103.573
61.73                   0.134915        -124.009         0.991026         155.893         0.990951         155.887         0.133586        -103.613
61.74                   0.135095        -124.048         0.990997          155.86         0.990922         155.854         0.133803        -103.653
61.75                   0.135276        -124.087         0.990969         155.827         0.990893         155.821          0.13402        -103.693
61.76                   0.135457        -124.127         0.990941         155.794         0.990864         155.788         0.134237        -103.733
61.77                   0.135638        -124.167         0.990912         155.761         0.990834         155.755         0.134454        -103.773
61.78                    0.13582        -124.206         0.990884         155.728         0.990805         155.722         0.134672        -103.812
61.79                   0.136002        -124.246         0.990855         155.695         0.990776         155.688          0.13489        -103.852
61.8                    0.136184        -124.286         0.990826         155.662         0.990746         155.655         0.135108        -103.891
61.81                   0.136367        -124.325         0.990798         155.629         0.990717         155.622         0.135326         -103.93
61.82                    0.13655        -124.365         0.990769         155.596         0.990687         155.589         0.135545        -103.969
61.83                   0.136733        -124.405          0.99074         155.563         0.990657         155.556         0.135763        -104.008
61.84                   0.136916        -124.445         0.990711         155.529         0.990628         155.523         0.135982        -104.047
61.85                     0.1371        -124.485         0.990682         155.496         0.990598          155.49         0.136201        -104.085
61.86                   0.137284        -124.525         0.990652         155.463         0.990568         155.457          0.13642        -104.124
61.87                   0.137469        -124.565         0.990623          155.43         0.990538         155.423         0.136639        -104.162
61.88                   0.137653        -124.605         0.990594         155.397         0.990508          155.39         0.136858          -104.2
61.89                   0.137838        -124.645         0.990564         155.364         0.990478         155.357         0.137077        -104.239
61.9                    0.138024        -124.685         0.990535         155.331         0.990448         155.324         0.137297        -104.277
61.91                    0.13821        -124.725         0.990505         155.298         0.990417         155.291         0.137516        -104.315
61.92                   0.138396        -124.765         0.990476         155.265         0.990387         155.258         0.137736        -104.352
61.93                   0.138582        -124.806         0.990446         155.232         0.990357         155.225         0.137956         -104.39
61.94                   0.138768        -124.846         0.990416         155.199         0.990326         155.192         0.138176        -104.428
61.95                   0.138955        -124.886         0.990386         155.166         0.990296         155.159         0.138396        -104.465
61.96                   0.139143        -124.926         0.990356         155.133         0.990265         155.126         0.138616        -104.502
61.97                    0.13933        -124.967         0.990326           155.1         0.990235         155.092         0.138836         -104.54