! TOUCHSTONE file generated by CST MICROWAVE STUDIO
! Date and time: Sat Feb 24 20:43:22 2024
! Project name: material_angular.cst
! Parameters = {Z=0; Y=2}
! Header version: 2018
! Port assignment regex: !\s*Touchstone port\s*([0-9]+)\s*=\s*(CST MWS port|CST DS port)\s*([0-9]+|Zmin|Zmax)\s*\(\"(.*)\"\)(\s*mode\s*([0-9]+))?.*
! Touchstone port assignment:
! Touchstone port 1 = CST MWS port 1 ("")
! Touchstone port 2 = CST MWS port 2 ("")
# GHz S MA R 376.7
60                      0.111325        -109.304         0.993878         160.729         0.993653         160.746         0.111447        -109.235
60.01                    0.11151         -109.34         0.993856         160.695         0.993633         160.712         0.111633        -109.266
60.02                   0.111696        -109.376         0.993835         160.661         0.993613         160.678         0.111819        -109.298
60.03                   0.111881        -109.412         0.993813         160.627         0.993594         160.644         0.112005        -109.329
60.04                   0.112067        -109.448         0.993791         160.593         0.993574          160.61         0.112191        -109.361
60.05                   0.112252        -109.483         0.993769         160.559         0.993554         160.576         0.112377        -109.392
60.06                   0.112438        -109.519         0.993747         160.525         0.993534         160.542         0.112563        -109.424
60.07                   0.112623        -109.555         0.993725         160.491         0.993514         160.508         0.112749        -109.455
60.08                   0.112809        -109.591         0.993703         160.457         0.993494         160.474         0.112935        -109.487
60.09                   0.112995        -109.626         0.993681         160.423         0.993474         160.441         0.113121        -109.518
60.1                     0.11318        -109.662         0.993659         160.389         0.993454         160.407         0.113307         -109.55
60.11                   0.113366        -109.698         0.993637         160.355         0.993434         160.373         0.113493        -109.581
60.12                   0.113552        -109.733         0.993615         160.321         0.993414         160.339         0.113679        -109.613
60.13                   0.113737        -109.769         0.993593         160.287         0.993394         160.305         0.113865        -109.645
60.14                   0.113923        -109.805         0.993571         160.253         0.993374         160.271         0.114051        -109.676
60.15                   0.114109         -109.84         0.993548         160.219         0.993354         160.237         0.114237        -109.708
60.16                   0.114295        -109.876         0.993526         160.185         0.993334         160.203         0.114423         -109.74
60.17                    0.11448        -109.911         0.993504         160.151         0.993314         160.169          0.11461        -109.772
60.18                   0.114666        -109.947         0.993481         160.117         0.993293         160.135         0.114796        -109.803
60.19                   0.114852        -109.983         0.993459         160.083         0.993273         160.102         0.114982        -109.835
60.2                    0.115038        -110.018         0.993437         160.049         0.993253         160.068         0.115168        -109.867
60.21                   0.115224        -110.054         0.993414         160.015         0.993232         160.034         0.115354        -109.899
60.22                    0.11541        -110.089         0.993392         159.982         0.993212             160          0.11554        -109.931
60.23                   0.115596        -110.125         0.993369         159.948         0.993192         159.966         0.115726        -109.962
60.24                   0.115782         -110.16         0.993346         159.914         0.993171         159.932         0.115913        -109.994
60.25                   0.115968        -110.196         0.993324          159.88         0.993151         159.898         0.116099        -110.026
60.26                   0.116154        -110.231         0.993301         159.846          0.99313         159.864         0.116285        -110.058
60.27                    0.11634        -110.267         0.993278         159.812          0.99311          159.83         0.116471         -110.09
60.28                   0.116526        -110.302         0.993256         159.778         0.993089         159.796         0.116657        -110.122
60.29                   0.116712        -110.338         0.993233         159.744         0.993068         159.762         0.116843        -110.154
60.3                    0.116898        -110.373          0.99321          159.71         0.993048         159.729          0.11703        -110.186
60.31                   0.117084        -110.409         0.993187         159.676         0.993027         159.695         0.117216        -110.218
60.32                   0.117271        -110.444         0.993164         159.642         0.993006         159.661         0.117402         -110.25
60.33                   0.117457         -110.48         0.993141         159.608         0.992986         159.627         0.117588        -110.282
60.34                   0.117643        -110.515         0.993118         159.574         0.992965         159.593         0.117775        -110.314
60.35                   0.117829        -110.551         0.993095          159.54         0.992944         159.559         0.117961        -110.346
60.36                   0.118015        -110.586         0.993072         159.506         0.992923         159.525         0.118147        -110.379
60.37                   0.118202        -110.621         0.993049         159.472         0.992902         159.491         0.118333        -110.411
60.38                   0.118388        -110.657         0.993026         159.438         0.992881         159.457          0.11852        -110.443
60.39                   0.118574        -110.692         0.993003         159.404          0.99286         159.423         0.118706        -110.475
60.4                    0.118761        -110.727          0.99298          159.37         0.992839         159.389         0.118892        -110.507
60.41                   0.118947        -110.763         0.992956         159.336         0.992818         159.355         0.119078         -110.54
60.42                   0.119133        -110.798         0.992933         159.302         0.992797         159.321         0.119265        -110.572
60.43                    0.11932        -110.833          0.99291         159.268         0.992776         159.287         0.119451        -110.604
60.44                   0.119506        -110.869         0.992886         159.234         0.992755         159.254         0.119637        -110.636
60.45                   0.119693        -110.904         0.992863           159.2         0.992734          159.22         0.119823        -110.669
60.46                   0.119879        -110.939          0.99284         159.166         0.992713         159.186          0.12001        -110.701
60.47                   0.120066        -110.975         0.992816         159.132         0.992691         159.152         0.120196        -110.733
60.48                   0.120252         -111.01         0.992793         159.098          0.99267         159.118         0.120382        -110.766
60.49                   0.120439        -111.045         0.992769         159.064         0.992649         159.084         0.120568        -110.798
60.5                    0.120625         -111.08         0.992745          159.03         0.992628          159.05         0.120755        -110.831
60.51                   0.120812        -111.116         0.992722         158.996         0.992606         159.016         0.120941        -110.863
60.52                   0.120998        -111.151         0.992698         158.962         0.992585         158.982         0.121127        -110.896
60.53                   0.121185        -111.186         0.992674         158.928         0.992563         158.948         0.121314        -110.928
60.54                   0.121372        -111.221         0.992651         158.894         0.992542         158.914           0.1215         -110.96
60.55                   0.121558        -111.256         0.992627          158.86          0.99252          158.88         0.121686        -110.993
60.56                   0.121745        -111.292         0.992603         158.826         0.992499         158.846         0.121872        -111.026
60.57                   0.121932        -111.327         0.992579         158.792         0.992477         158.812         0.122059        -111.058
60.58                   0.122118        -111.362         0.992555         158.758         0.992456         158.778         0.122245        -111.091
60.59                   0.122305        -111.397         0.992531         158.724         0.992434         158.744         0.122431        -111.123
60.6                    0.122492        -111.432         0.992507          158.69         0.992412          158.71         0.122618        -111.156
60.61                   0.122678        -111.467         0.992483         158.656         0.992391         158.676         0.122804        -111.188
60.62                   0.122865        -111.503         0.992459         158.622         0.992369         158.643          0.12299        -111.221
60.63                   0.123052        -111.538         0.992435         158.588         0.992347         158.609         0.123177        -111.254
60.64                   0.123239        -111.573         0.992411         158.554         0.992325         158.575         0.123363        -111.286
60.65                   0.123425        -111.608         0.992387          158.52         0.992303         158.541         0.123549        -111.319
60.66                   0.123612        -111.643         0.992363         158.486         0.992282         158.507         0.123735        -111.352
60.67                   0.123799        -111.678         0.992339         158.452          0.99226         158.473         0.123922        -111.385
60.68                   0.123986        -111.713         0.992314         158.418         0.992238         158.439         0.124108        -111.417
60.69                   0.124173        -111.748          0.99229         158.384         0.992216         158.405         0.124294         -111.45
60.7                    0.124359        -111.783         0.992266          158.35         0.992194         158.371         0.124481        -111.483
60.71                   0.124546        -111.818         0.992241         158.316         0.992172         158.337         0.124667        -111.516
60.72                   0.124733        -111.853         0.992217         158.282         0.992149         158.303         0.124853        -111.549
60.73                    0.12492        -111.888         0.992192         158.248         0.992127         158.269         0.125039        -111.581
60.74                   0.125107        -111.923         0.992168         158.214         0.992105         158.235         0.125226        -111.614
60.75                   0.125294        -111.958         0.992143         158.181         0.992083         158.201         0.125412        -111.647
60.76                   0.125481        -111.993         0.992119         158.147         0.992061         158.167         0.125598         -111.68
60.77                   0.125668        -112.028         0.992094         158.113         0.992038         158.133         0.125784        -111.713
60.78                   0.125855        -112.063          0.99207         158.079         0.992016         158.099         0.125971        -111.746
60.79                   0.126042        -112.098         0.992045         158.045         0.991994         158.065         0.126157        -111.779
60.8                    0.126229        -112.133          0.99202         158.011         0.991971         158.031         0.126343        -111.812
60.81                   0.126416        -112.168         0.991995         157.977         0.991949         157.997          0.12653        -111.845
60.82                   0.126603        -112.203         0.991971         157.943         0.991926         157.963         0.126716        -111.878
60.83                    0.12679        -112.238         0.991946         157.909         0.991904         157.929         0.126902        -111.911
60.84                   0.126977        -112.273         0.991921         157.875         0.991881         157.895         0.127088        -111.944
60.85                   0.127164        -112.308         0.991896         157.841         0.991859         157.861         0.127274        -111.977
60.86                   0.127351        -112.343         0.991871         157.807         0.991836         157.827         0.127461         -112.01
60.87                   0.127538        -112.377         0.991846         157.773         0.991814         157.793         0.127647        -112.043
60.88                   0.127725        -112.412         0.991821         157.739         0.991791         157.759         0.127833        -112.076
60.89                   0.127912        -112.447         0.991796         157.705         0.991768         157.725         0.128019        -112.109
60.9                    0.128099        -112.482         0.991771         157.671         0.991746         157.691         0.128206        -112.142
60.91                   0.128286        -112.517         0.991746         157.637         0.991723         157.657         0.128392        -112.176
60.92                   0.128473        -112.552         0.991721         157.603           0.9917         157.623         0.128578        -112.209
60.93                    0.12866        -112.587         0.991695         157.569         0.991677         157.589         0.128764        -112.242
60.94                   0.128847        -112.621          0.99167         157.535         0.991654         157.555          0.12895        -112.275
60.95                   0.129034        -112.656         0.991645         157.501         0.991631         157.522         0.129137        -112.308
60.96                   0.129222        -112.691          0.99162         157.467         0.991608         157.488         0.129323        -112.342
60.97                   0.129409        -112.726         0.991594         157.433         0.991585         157.454         0.129509        -112.375
60.98                   0.129596        -112.761         0.991569         157.399         0.991562          157.42         0.129695        -112.408
60.99                   0.129783        -112.795         0.991543         157.365         0.991539         157.386         0.129881        -112.441
61                       0.12997         -112.83         0.991518         157.331         0.991516         157.352         0.130068        -112.475
61.01                   0.130157        -112.865         0.991493         157.297         0.991493         157.318         0.130254        -112.508
61.02                   0.130344          -112.9         0.991467         157.263          0.99147         157.284          0.13044        -112.541
61.03                   0.130531        -112.934         0.991441         157.229         0.991447          157.25         0.130626        -112.575
61.04                   0.130719        -112.969         0.991416         157.195         0.991423         157.216         0.130812        -112.608
61.05                   0.130906        -113.004          0.99139         157.161           0.9914         157.182         0.130998        -112.642
61.06                   0.131093        -113.038         0.991365         157.127         0.991377         157.148         0.131184        -112.675
61.07                    0.13128        -113.073         0.991339         157.093         0.991353         157.114          0.13137        -112.708
61.08                   0.131467        -113.108         0.991313         157.059          0.99133          157.08         0.131557        -112.742
61.09                   0.131655        -113.143         0.991287         157.025         0.991306         157.046         0.131743        -112.775
61.1                    0.131842        -113.177         0.991262         156.991         0.991283         157.012         0.131929        -112.809
61.11                   0.132029        -113.212         0.991236         156.957         0.991259         156.978         0.132115        -112.842
61.12                   0.132216        -113.247          0.99121         156.923         0.991236         156.944         0.132301        -112.876
61.13                   0.132403        -113.281         0.991184         156.889         0.991212          156.91         0.132487        -112.909
61.14                    0.13259        -113.316         0.991158         156.855         0.991189         156.876         0.132673        -112.943
61.15                   0.132778         -113.35         0.991132         156.821         0.991165         156.842         0.132859        -112.976
61.16                   0.132965        -113.385         0.991106         156.787         0.991141         156.808         0.133045         -113.01
61.17                   0.133152         -113.42          0.99108         156.753         0.991118         156.774         0.133231        -113.043
61.18                   0.133339        -113.454         0.991054         156.719         0.991094          156.74         0.133417        -113.077
61.19                   0.133526        -113.489         0.991028         156.685          0.99107         156.706         0.133603        -113.111
61.2                    0.133714        -113.523         0.991001         156.651         0.991046         156.672         0.133789        -113.144
61.21                   0.133901        -113.558         0.990975         156.617         0.991022         156.638         0.133975        -113.178
61.22                   0.134088        -113.593         0.990949         156.583         0.990998         156.604         0.134161        -113.211
61.23                   0.134275        -113.627         0.990923         156.549         0.990974          156.57         0.134347        -113.245
61.24                   0.134463        -113.662         0.990896         156.515          0.99095         156.536         0.134533        -113.279
61.25                    0.13465        -113.696          0.99087         156.481         0.990926         156.502         0.134719        -113.312
61.26                   0.134837        -113.731         0.990844         156.447         0.990902         156.468         0.134905        -113.346
61.27                   0.135024        -113.765         0.990817         156.413         0.990878         156.434         0.135091         -113.38
61.28                   0.135211          -113.8         0.990791         156.379         0.990854           156.4         0.135277        -113.414
61.29                   0.135399        -113.834         0.990764         156.345          0.99083         156.366         0.135463        -113.447
61.3                    0.135586        -113.869         0.990738         156.312         0.990806         156.332         0.135649        -113.481
61.31                   0.135773        -113.903         0.990711         156.278         0.990781         156.298         0.135834        -113.515
61.32                    0.13596        -113.938         0.990685         156.244         0.990757         156.264          0.13602        -113.549
61.33                   0.136147        -113.972         0.990658          156.21         0.990733          156.23         0.136206        -113.582
61.34                   0.136334        -114.007         0.990631         156.176         0.990708         156.196         0.136392        -113.616
61.35                   0.136522        -114.041         0.990604         156.142         0.990684         156.162         0.136578         -113.65
61.36                   0.136709        -114.076         0.990578         156.108         0.990659         156.128         0.136764        -113.684
61.37                   0.136896         -114.11         0.990551         156.074         0.990635         156.094         0.136949        -113.718
61.38                   0.137083        -114.144         0.990524          156.04          0.99061          156.06         0.137135        -113.752
61.39                    0.13727        -114.179         0.990497         156.006         0.990586         156.026         0.137321        -113.785
61.4                    0.137458        -114.213          0.99047         155.972         0.990561         155.992         0.137507        -113.819
61.41                   0.137645        -114.248         0.990444         155.938         0.990537         155.958         0.137693        -113.853
61.42                   0.137832        -114.282         0.990417         155.904         0.990512         155.924         0.137878        -113.887
61.43                   0.138019        -114.316          0.99039          155.87         0.990487          155.89         0.138064        -113.921
61.44                   0.138206        -114.351         0.990363         155.836         0.990462         155.856          0.13825        -113.955
61.45                   0.138393        -114.385         0.990336         155.802         0.990438         155.822         0.138435        -113.989
61.46                    0.13858        -114.419         0.990308         155.768         0.990413         155.788         0.138621        -114.023
61.47                   0.138767        -114.454         0.990281         155.734         0.990388         155.754         0.138807        -114.057
61.48                   0.138955        -114.488         0.990254           155.7         0.990363          155.72         0.138992        -114.091
61.49                   0.139142        -114.523         0.990227         155.666         0.990338         155.686         0.139178        -114.125
61.5                    0.139329        -114.557           0.9902         155.632         0.990313         155.652         0.139364        -114.159
61.51                   0.139516        -114.591         0.990172         155.598         0.990288         155.618         0.139549        -114.193
61.52                   0.139703        -114.625         0.990145         155.564         0.990263         155.584         0.139735        -114.227
61.53                    0.13989         -114.66         0.990118          155.53         0.990238          155.55         0.139921        -114.261
61.54                   0.140077        -114.694         0.990091         155.496         0.990213         155.516         0.140106        -114.295
61.55                   0.140264        -114.728         0.990063         155.462         0.990187         155.482         0.140292        -114.329
61.56                   0.140451        -114.763         0.990036         155.428         0.990162         155.448         0.140477        -114.363
61.57                   0.140638        -114.797         0.990008         155.394         0.990137         155.414         0.140663        -114.398
61.58                   0.140825        -114.831         0.989981          155.36         0.990112         155.379         0.140848        -114.432
61.59                   0.141012        -114.865         0.989953         155.327         0.990086         155.345         0.141034        -114.466
61.6                    0.141199          -114.9         0.989926         155.293         0.990061         155.311         0.141219          -114.5
61.61                   0.141386        -114.934         0.989898         155.259         0.990035         155.277         0.141405        -114.534
61.62                   0.141573        -114.968          0.98987         155.225          0.99001         155.243          0.14159        -114.568
61.63                    0.14176        -115.002         0.989843         155.191         0.989984         155.209         0.141776        -114.602
61.64                   0.141947        -115.037         0.989815         155.157         0.989959         155.175         0.141961        -114.637
61.65                   0.142134        -115.071         0.989787         155.123         0.989933         155.141         0.142147        -114.671
61.66                   0.142321        -115.105          0.98976         155.089         0.989908         155.107         0.142332        -114.705
61.67                   0.142508        -115.139         0.989732         155.055         0.989882         155.073         0.142517        -114.739
61.68                   0.142695        -115.173         0.989704         155.021         0.989856         155.039         0.142703        -114.773
61.69                   0.142882        -115.207         0.989676         154.987         0.989831         155.005         0.142888        -114.808
61.7                    0.143069        -115.242         0.989648         154.953         0.989805         154.971         0.143073        -114.842
61.71                   0.143256        -115.276          0.98962         154.919         0.989779         154.937         0.143259        -114.876
61.72                   0.143442         -115.31         0.989592         154.885         0.989753         154.903         0.143444        -114.911
61.73                   0.143629        -115.344         0.989564         154.851         0.989727         154.869         0.143629        -114.945
61.74                   0.143816        -115.378         0.989536         154.817         0.989701         154.835         0.143815        -114.979
61.75                   0.144003        -115.412         0.989508         154.783         0.989675         154.801            0.144        -115.013
61.76                    0.14419        -115.446          0.98948         154.749         0.989649         154.767         0.144185        -115.048
61.77                   0.144376         -115.48         0.989452         154.715         0.989623         154.733          0.14437        -115.082
61.78                   0.144563        -115.515         0.989424         154.682         0.989597         154.699         0.144555        -115.116
61.79                    0.14475        -115.549         0.989396         154.648         0.989571         154.665         0.144741        -115.151
61.8                    0.144937        -115.583         0.989367         154.614         0.989545         154.631         0.144926        -115.185
61.81                   0.145123        -115.617         0.989339          154.58         0.989518         154.597         0.145111         -115.22
61.82                    0.14531        -115.651         0.989311         154.546         0.989492         154.563         0.145296        -115.254
61.83                   0.145497        -115.685         0.989282         154.512         0.989466         154.529         0.145481        -115.288
61.84                   0.145683        -115.719         0.989254         154.478         0.989439         154.495         0.145666        -115.323
61.85                    0.14587        -115.753         0.989226         154.444         0.989413         154.461         0.145851        -115.357
61.86                   0.146057        -115.787         0.989197          154.41         0.989387         154.427         0.146036        -115.392
61.87                   0.146243        -115.821         0.989169         154.376          0.98936         154.393         0.146221        -115.426
61.88                    0.14643        -115.855          0.98914         154.342         0.989334         154.359         0.146406         -115.46
61.89                   0.146616        -115.889         0.989112         154.308         0.989307         154.325         0.146591        -115.495
61.9                    0.146803        -115.923         0.989083         154.274          0.98928         154.291         0.146776        -115.529
61.91                   0.146989        -115.957         0.989055          154.24         0.989254         154.257         0.146961        -115.564
61.92                   0.147176        -115.991         0.989026         154.206         0.989227         154.223         0.147146        -115.598
61.93                   0.147362        -116.025         0.988997         154.173           0.9892         154.189         0.147331        -115.633
61.94                   0.147549        -116.059         0.988969         154.139         0.989174         154.155         0.147516        -115.667
61.95                   0.147735        -116.093          0.98894         154.105         0.989147         154.121         0.147701        -115.702
61.96                   0.147922        -116.127         0.988911         154.071          0.98912         154.087         0.147886        -115.736
61.97                   0.148108        -116.161         0.988882         154.037         0.989093         154.053          0.14807        -115.771