! TOUCHSTONE file generated by CST MICROWAVE STUDIO
! Date and time: Wed Feb 21 09:08:40 2024
! Project name: material_prueba.cst
! Parameters = {Y=1}
! Header version: 2018
! Port assignment regex: !\s*Touchstone port\s*([0-9]+)\s*=\s*(CST MWS port|CST DS port)\s*([0-9]+|Zmin|Zmax)\s*\(\"(.*)\"\)(\s*mode\s*([0-9]+))?.*
! Touchstone port assignment:
! Touchstone port 1 = CST MWS port 1 ("")
! Touchstone port 2 = CST MWS port 2 ("")
# GHz S MA R 376.7
60                      0.106929        -119.897         0.994291         161.617         0.994111         161.652         0.107203        -96.8548
60.01                   0.107089        -119.934         0.994286         161.581         0.994112         161.616         0.107387        -96.8988
60.02                    0.10725         -119.97         0.994281         161.546         0.994113          161.58         0.107571        -96.9428
60.03                    0.10741        -120.007         0.994276          161.51         0.994114         161.543         0.107755        -96.9867
60.04                   0.107571        -120.043         0.994271         161.474         0.994115         161.507         0.107938        -97.0305
60.05                   0.107732         -120.08         0.994265         161.438         0.994115         161.471         0.108122        -97.0742
60.06                   0.107893        -120.117         0.994259         161.403         0.994115         161.435         0.108305        -97.1178
60.07                   0.108054        -120.153         0.994253         161.367         0.994114         161.399         0.108488        -97.1614
60.08                   0.108215         -120.19         0.994246         161.331         0.994114         161.363          0.10867        -97.2048
60.09                   0.108376        -120.226          0.99424         161.296         0.994113         161.326         0.108853        -97.2482
60.1                    0.108538        -120.263         0.994233          161.26         0.994111          161.29         0.109035        -97.2915
60.11                   0.108699          -120.3         0.994226         161.225          0.99411         161.254         0.109218        -97.3347
60.12                    0.10886        -120.336         0.994218         161.189         0.994108         161.218           0.1094        -97.3779
60.13                   0.109022        -120.373         0.994211         161.153         0.994105         161.182         0.109581        -97.4209
60.14                   0.109184         -120.41         0.994203         161.118         0.994103         161.146         0.109763        -97.4639
60.15                   0.109345        -120.447         0.994195         161.082           0.9941          161.11         0.109944        -97.5067
60.16                   0.109507        -120.483         0.994187         161.047         0.994097         161.074         0.110125        -97.5495
60.17                   0.109669         -120.52         0.994179         161.011         0.994093         161.038         0.110306        -97.5922
60.18                   0.109831        -120.557          0.99417         160.976         0.994089         161.002         0.110487        -97.6349
60.19                   0.109993        -120.594         0.994161          160.94         0.994085         160.967         0.110668        -97.6774
60.2                    0.110155         -120.63         0.994152         160.905         0.994081         160.931         0.110848        -97.7198
60.21                   0.110318        -120.667         0.994143          160.87         0.994076         160.895         0.111028        -97.7622
60.22                    0.11048        -120.704         0.994133         160.834         0.994071         160.859         0.111208        -97.8044
60.23                   0.110642        -120.741         0.994124         160.799         0.994066         160.823         0.111388        -97.8466
60.24                   0.110805        -120.778         0.994114         160.763         0.994061         160.787         0.111567        -97.8887
60.25                   0.110967        -120.815         0.994104         160.728         0.994055         160.752         0.111746        -97.9307
60.26                    0.11113        -120.852         0.994094         160.693         0.994049         160.716         0.111925        -97.9726
60.27                   0.111293        -120.888         0.994083         160.658         0.994043          160.68         0.112104        -98.0144
60.28                   0.111456        -120.925         0.994072         160.622         0.994036         160.645         0.112283        -98.0561
60.29                   0.111619        -120.962         0.994062         160.587         0.994029         160.609         0.112461        -98.0977
60.3                    0.111782        -120.999         0.994051         160.552         0.994022         160.573          0.11264        -98.1393
60.31                   0.111945        -121.036         0.994039         160.517         0.994015         160.538         0.112818        -98.1807
60.32                   0.112108        -121.073         0.994028         160.481         0.994007         160.502         0.112995         -98.222
60.33                   0.112271         -121.11         0.994016         160.446         0.993999         160.466         0.113173        -98.2633
60.34                   0.112435        -121.147         0.994004         160.411         0.993991         160.431          0.11335        -98.3044
60.35                   0.112598        -121.184         0.993992         160.376         0.993983         160.395         0.113527        -98.3455
60.36                   0.112762        -121.221          0.99398         160.341         0.993974          160.36         0.113704        -98.3864
60.37                   0.112925        -121.258         0.993968         160.306         0.993965         160.324         0.113881        -98.4273
60.38                   0.113089        -121.296         0.993955          160.27         0.993956         160.289         0.114057         -98.468
60.39                   0.113253        -121.333         0.993942         160.235         0.993946         160.253         0.114234        -98.5087
60.4                    0.113417         -121.37         0.993929           160.2         0.993937         160.218          0.11441        -98.5492
60.41                   0.113581        -121.407         0.993916         160.165         0.993927         160.183         0.114585        -98.5897
60.42                   0.113745        -121.444         0.993903          160.13         0.993917         160.147         0.114761          -98.63
60.43                   0.113909        -121.481         0.993889         160.095         0.993906         160.112         0.114936        -98.6703
60.44                   0.114073        -121.518         0.993876          160.06         0.993896         160.076         0.115111        -98.7104
60.45                   0.114238        -121.556         0.993862         160.025         0.993885         160.041         0.115286        -98.7505
60.46                   0.114402        -121.593         0.993848          159.99         0.993874         160.006         0.115461        -98.7904
60.47                   0.114566         -121.63         0.993834         159.955         0.993862         159.971         0.115635        -98.8302
60.48                   0.114731        -121.667         0.993819          159.92         0.993851         159.935          0.11581        -98.8699
60.49                   0.114896        -121.705         0.993805         159.885         0.993839           159.9         0.115984        -98.9095
60.5                    0.115061        -121.742          0.99379          159.85         0.993827         159.865         0.116157         -98.949
60.51                   0.115225        -121.779         0.993775         159.816         0.993815          159.83         0.116331        -98.9884
60.52                    0.11539        -121.816          0.99376         159.781         0.993802         159.794         0.116504        -99.0277
60.53                   0.115555        -121.854         0.993745         159.746          0.99379         159.759         0.116677        -99.0669
60.54                   0.115721        -121.891          0.99373         159.711         0.993777         159.724          0.11685        -99.1059
60.55                   0.115886        -121.928         0.993714         159.676         0.993763         159.689         0.117023        -99.1449
60.56                   0.116051        -121.966         0.993698         159.641          0.99375         159.654         0.117195        -99.1837
60.57                   0.116217        -122.003         0.993682         159.607         0.993737         159.619         0.117367        -99.2224
60.58                   0.116382        -122.041         0.993666         159.572         0.993723         159.584         0.117539         -99.261
60.59                   0.116548        -122.078          0.99365         159.537         0.993709         159.548         0.117711        -99.2994
60.6                    0.116713        -122.115         0.993634         159.502         0.993695         159.513         0.117882        -99.3378
60.61                   0.116879        -122.153         0.993617         159.468          0.99368         159.478         0.118053         -99.376
60.62                   0.117045         -122.19           0.9936         159.433         0.993666         159.443         0.118224        -99.4141
60.63                   0.117211        -122.228         0.993584         159.398         0.993651         159.408         0.118395        -99.4521
60.64                   0.117377        -122.265         0.993567         159.363         0.993636         159.373         0.118566          -99.49
60.65                   0.117543        -122.303         0.993549         159.329         0.993621         159.339         0.118736        -99.5277
60.66                   0.117709         -122.34         0.993532         159.294         0.993605         159.304         0.118906        -99.5653
60.67                   0.117876        -122.378         0.993515         159.259          0.99359         159.269         0.119076        -99.6028
60.68                   0.118042        -122.416         0.993497         159.225         0.993574         159.234         0.119246        -99.6402
60.69                   0.118209        -122.453         0.993479          159.19         0.993558         159.199         0.119415        -99.6774
60.7                    0.118375        -122.491         0.993461         159.156         0.993542         159.164         0.119584        -99.7145
60.71                   0.118542        -122.528         0.993443         159.121         0.993525         159.129         0.119753        -99.7515
60.72                   0.118709        -122.566         0.993425         159.087         0.993509         159.094         0.119922        -99.7883
60.73                   0.118876        -122.604         0.993407         159.052         0.993492          159.06          0.12009         -99.825
60.74                   0.119043        -122.641         0.993388         159.017         0.993475         159.025         0.120258        -99.8616
60.75                    0.11921        -122.679          0.99337         158.983         0.993458          158.99         0.120426         -99.898
60.76                   0.119377        -122.717         0.993351         158.948         0.993441         158.955         0.120594        -99.9343
60.77                   0.119544        -122.754         0.993332         158.914         0.993423         158.921         0.120762        -99.9704
60.78                   0.119712        -122.792         0.993313         158.879         0.993406         158.886         0.120929        -100.006
60.79                   0.119879         -122.83         0.993294         158.845         0.993388         158.851         0.121096        -100.042
60.8                    0.120046        -122.868         0.993274         158.811          0.99337         158.816         0.121263        -100.078
60.81                   0.120214        -122.905         0.993255         158.776         0.993351         158.782          0.12143        -100.114
60.82                   0.120382        -122.943         0.993235         158.742         0.993333         158.747         0.121596        -100.149
60.83                    0.12055        -122.981         0.993215         158.707         0.993315         158.712         0.121763        -100.184
60.84                   0.120718        -123.019         0.993196         158.673         0.993296         158.678         0.121929        -100.219
60.85                   0.120886        -123.057         0.993176         158.639         0.993277         158.643         0.122094        -100.254
60.86                   0.121054        -123.094         0.993155         158.604         0.993258         158.609          0.12226        -100.289
60.87                   0.121222        -123.132         0.993135          158.57         0.993239         158.574         0.122425        -100.324
60.88                    0.12139         -123.17         0.993115         158.536         0.993219          158.54         0.122591        -100.358
60.89                   0.121558        -123.208         0.993094         158.501           0.9932         158.505         0.122756        -100.393
60.9                    0.121727        -123.246         0.993073         158.467          0.99318         158.471          0.12292        -100.427
60.91                   0.121896        -123.284         0.993053         158.433          0.99316         158.436         0.123085        -100.461
60.92                   0.122064        -123.322         0.993032         158.398          0.99314         158.402         0.123249        -100.495
60.93                   0.122233         -123.36         0.993011         158.364          0.99312         158.367         0.123414        -100.529
60.94                   0.122402        -123.398         0.992989          158.33           0.9931         158.333         0.123578        -100.562
60.95                   0.122571        -123.436         0.992968         158.296         0.993079         158.298         0.123741        -100.596
60.96                    0.12274        -123.474         0.992947         158.261         0.993059         158.264         0.123905        -100.629
60.97                   0.122909        -123.512         0.992925         158.227         0.993038         158.229         0.124069        -100.662
60.98                   0.123078         -123.55         0.992903         158.193         0.993017         158.195         0.124232        -100.695
60.99                   0.123247        -123.588         0.992881         158.159         0.992996         158.161         0.124395        -100.728
61                      0.123417        -123.626          0.99286         158.125         0.992974         158.126         0.124558         -100.76
61.01                   0.123586        -123.664         0.992838          158.09         0.992953         158.092          0.12472        -100.793
61.02                   0.123756        -123.702         0.992815         158.056         0.992932         158.058         0.124883        -100.825
61.03                   0.123926         -123.74         0.992793         158.022          0.99291         158.023         0.125045        -100.857
61.04                   0.124096        -123.779         0.992771         157.988         0.992888         157.989         0.125208        -100.889
61.05                   0.124266        -123.817         0.992748         157.954         0.992866         157.955          0.12537        -100.921
61.06                   0.124436        -123.855         0.992725          157.92         0.992844         157.921         0.125531        -100.952
61.07                   0.124606        -123.893         0.992703         157.886         0.992822         157.886         0.125693        -100.984
61.08                   0.124776        -123.931          0.99268         157.852         0.992799         157.852         0.125855        -101.015
61.09                   0.124946        -123.969         0.992657         157.818         0.992777         157.818         0.126016        -101.046
61.1                    0.125117        -124.008         0.992634         157.784         0.992754         157.784         0.126178        -101.077
61.11                   0.125287        -124.046         0.992611          157.75         0.992731         157.749         0.126339        -101.107
61.12                   0.125458        -124.084         0.992587         157.716         0.992708         157.715           0.1265        -101.138
61.13                   0.125628        -124.123         0.992564         157.682         0.992685         157.681         0.126661        -101.168
61.14                   0.125799        -124.161          0.99254         157.648         0.992662         157.647         0.126821        -101.198
61.15                    0.12597        -124.199         0.992517         157.614         0.992639         157.613         0.126982        -101.228
61.16                   0.126141        -124.237         0.992493          157.58         0.992615         157.579         0.127143        -101.258
61.17                   0.126312        -124.276         0.992469         157.546         0.992592         157.545         0.127303        -101.287
61.18                   0.126483        -124.314         0.992445         157.512         0.992568         157.511         0.127463        -101.316
61.19                   0.126655        -124.353         0.992421         157.478         0.992544         157.477         0.127624        -101.345
61.2                    0.126826        -124.391         0.992397         157.444          0.99252         157.442         0.127784        -101.374
61.21                   0.126998        -124.429         0.992373          157.41         0.992496         157.408         0.127944        -101.403
61.22                   0.127169        -124.468         0.992348         157.376         0.992472         157.374         0.128104        -101.432
61.23                   0.127341        -124.506         0.992324         157.342         0.992447          157.34         0.128264         -101.46
61.24                   0.127513        -124.545         0.992299         157.309         0.992423         157.306         0.128423        -101.488
61.25                   0.127685        -124.583         0.992274         157.275         0.992398         157.272         0.128583        -101.516
61.26                   0.127857        -124.622          0.99225         157.241         0.992374         157.238         0.128743        -101.544
61.27                   0.128029         -124.66         0.992225         157.207         0.992349         157.204         0.128903        -101.571
61.28                   0.128201        -124.699           0.9922         157.173         0.992324         157.171         0.129062        -101.599
61.29                   0.128373        -124.737         0.992175         157.139         0.992299         157.137         0.129222        -101.626
61.3                    0.128546        -124.776          0.99215         157.106         0.992274         157.103         0.129381        -101.653
61.31                   0.128718        -124.814         0.992124         157.072         0.992248         157.069         0.129541         -101.68
61.32                   0.128891        -124.853         0.992099         157.038         0.992223         157.035           0.1297        -101.706
61.33                   0.129064        -124.891         0.992074         157.004         0.992198         157.001          0.12986        -101.732
61.34                   0.129237         -124.93         0.992048         156.971         0.992172         156.967         0.130019        -101.759
61.35                    0.12941        -124.969         0.992022         156.937         0.992146         156.933         0.130179        -101.785
61.36                   0.129583        -125.007         0.991997         156.903          0.99212           156.9         0.130338         -101.81
61.37                   0.129756        -125.046         0.991971         156.869         0.992094         156.866         0.130498        -101.836
61.38                   0.129929        -125.084         0.991945         156.836         0.992068         156.832         0.130658        -101.861
61.39                   0.130102        -125.123         0.991919         156.802         0.992042         156.798         0.130817        -101.886
61.4                    0.130276        -125.162         0.991893         156.768         0.992016         156.764         0.130977        -101.911
61.41                    0.13045        -125.201         0.991867         156.735          0.99199         156.731         0.131137        -101.936
61.42                   0.130623        -125.239          0.99184         156.701         0.991963         156.697         0.131296         -101.96
61.43                   0.130797        -125.278         0.991814         156.667         0.991937         156.663         0.131456        -101.985
61.44                   0.130971        -125.317         0.991787         156.634          0.99191         156.629         0.131616        -102.009
61.45                   0.131145        -125.355         0.991761           156.6         0.991883         156.596         0.131776        -102.033
61.46                   0.131319        -125.394         0.991734         156.567         0.991856         156.562         0.131936        -102.056
61.47                   0.131493        -125.433         0.991708         156.533         0.991829         156.528         0.132096         -102.08
61.48                   0.131668        -125.472         0.991681         156.499         0.991802         156.495         0.132257        -102.103
61.49                   0.131842        -125.511         0.991654         156.466         0.991775         156.461         0.132417        -102.126
61.5                    0.132017        -125.549         0.991627         156.432         0.991748         156.427         0.132578        -102.149
61.51                   0.132191        -125.588           0.9916         156.399         0.991721         156.394         0.132738        -102.172
61.52                   0.132366        -125.627         0.991573         156.365         0.991693          156.36         0.132899        -102.194
61.53                   0.132541        -125.666         0.991546         156.332         0.991666         156.326          0.13306        -102.217
61.54                   0.132716        -125.705         0.991518         156.298         0.991638         156.293         0.133222        -102.239
61.55                   0.132891        -125.744         0.991491         156.265          0.99161         156.259         0.133383        -102.261
61.56                   0.133066        -125.783         0.991464         156.231         0.991583         156.226         0.133544        -102.283
61.57                   0.133242        -125.822         0.991436         156.198         0.991555         156.192         0.133706        -102.304
61.58                   0.133417         -125.86         0.991408         156.164         0.991527         156.158         0.133868        -102.325
61.59                   0.133593        -125.899         0.991381         156.131         0.991499         156.125          0.13403        -102.347
61.6                    0.133768        -125.938         0.991353         156.097         0.991471         156.091         0.134193        -102.368
61.61                   0.133944        -125.977         0.991325         156.064         0.991442         156.058         0.134355        -102.388
61.62                    0.13412        -126.016         0.991297          156.03         0.991414         156.024         0.134518        -102.409
61.63                   0.134296        -126.055         0.991269         155.997         0.991386         155.991         0.134681        -102.429
61.64                   0.134472        -126.094         0.991241         155.964         0.991357         155.957         0.134845         -102.45
61.65                   0.134648        -126.133         0.991213          155.93         0.991329         155.924         0.135009         -102.47
61.66                   0.134825        -126.172         0.991185         155.897           0.9913          155.89         0.135173         -102.49
61.67                   0.135001        -126.211         0.991157         155.863         0.991271         155.857         0.135337        -102.509
61.68                   0.135178         -126.25         0.991128          155.83         0.991242         155.824         0.135501        -102.529
61.69                   0.135354        -126.289           0.9911         155.797         0.991213          155.79         0.135666        -102.548
61.7                    0.135531        -126.328         0.991071         155.763         0.991184         155.757         0.135831        -102.568
61.71                   0.135708        -126.368         0.991043          155.73         0.991155         155.723         0.135997        -102.587
61.72                   0.135885        -126.407         0.991014         155.697         0.991126          155.69         0.136163        -102.606
61.73                   0.136062        -126.446         0.990986         155.663         0.991097         155.656         0.136329        -102.624
61.74                    0.13624        -126.485         0.990957          155.63         0.991068         155.623         0.136496        -102.643
61.75                   0.136417        -126.524         0.990928         155.597         0.991038          155.59         0.136663        -102.661
61.76                   0.136595        -126.563         0.990899         155.563         0.991009         155.556          0.13683         -102.68
61.77                   0.136772        -126.602          0.99087          155.53          0.99098         155.523         0.136998        -102.698
61.78                    0.13695        -126.641         0.990841         155.497          0.99095          155.49         0.137166        -102.716
61.79                   0.137128        -126.681         0.990812         155.463          0.99092         155.456         0.137334        -102.734
61.8                    0.137306         -126.72         0.990783          155.43         0.990891         155.423         0.137503        -102.752
61.81                   0.137484        -126.759         0.990754         155.397         0.990861          155.39         0.137673        -102.769
61.82                   0.137662        -126.798         0.990724         155.364         0.990831         155.356         0.137842        -102.787
61.83                    0.13784        -126.837         0.990695          155.33         0.990801         155.323         0.138013        -102.804
61.84                   0.138019        -126.877         0.990665         155.297         0.990771          155.29         0.138183        -102.821
61.85                   0.138197        -126.916         0.990636         155.264         0.990741         155.257         0.138354        -102.839
61.86                   0.138376        -126.955         0.990606         155.231         0.990711         155.223         0.138526        -102.856
61.87                   0.138555        -126.994         0.990577         155.198         0.990681          155.19         0.138698        -102.873
61.88                   0.138734        -127.034         0.990547         155.164          0.99065         155.157          0.13887        -102.889
61.89                   0.138913        -127.073         0.990517         155.131          0.99062         155.124         0.139043        -102.906
61.9                    0.139092        -127.112         0.990488         155.098          0.99059          155.09         0.139217        -102.923
61.91                   0.139272        -127.151         0.990458         155.065         0.990559         155.057         0.139391        -102.939
61.92                   0.139451        -127.191         0.990428         155.032         0.990529         155.024         0.139565        -102.956
61.93                   0.139631         -127.23         0.990398         154.998         0.990498         154.991          0.13974        -102.972
61.94                    0.13981        -127.269         0.990368         154.965         0.990467         154.958         0.139916        -102.989
61.95                    0.13999        -127.309         0.990338         154.932         0.990437         154.925         0.140092        -103.005
61.96                    0.14017        -127.348         0.990308         154.899         0.990406         154.891         0.140268        -103.021
61.97                    0.14035        -127.387         0.990277         154.866         0.990375         154.858         0.140445        -103.037