! TOUCHSTONE file generated by CST MICROWAVE STUDIO
! Date and time: Sat Feb 17 14:30:00 2024
! Project name: MUT_rotado.cst
! Parameters = {AngX=0.5}
! Header version: 2018
! Port assignment regex: !\s*Touchstone port\s*([0-9]+)\s*=\s*(CST MWS port|CST DS port)\s*([0-9]+|Zmin|Zmax)\s*\(\"(.*)\"\)(\s*mode\s*([0-9]+))?.*
! Touchstone port assignment:
! Touchstone port 1 = CST MWS port 1 ("")
! Touchstone port 2 = CST MWS port 2 ("")
# GHz S MA R 376.7
60                      0.109253        -102.744         0.994054          161.09         0.993919         161.096         0.109233         -115.06
60.01                   0.109436        -102.776         0.994035         161.055         0.993903         161.061         0.109412        -115.094
60.02                   0.109619        -102.808         0.994015         161.021         0.993887         161.027         0.109592        -115.128
60.03                   0.109802        -102.841         0.993996         160.987         0.993871         160.993         0.109772        -115.162
60.04                   0.109985        -102.873         0.993976         160.953         0.993855         160.959         0.109951        -115.196
60.05                   0.110168        -102.905         0.993957         160.919         0.993838         160.925         0.110131         -115.23
60.06                   0.110351        -102.937         0.993937         160.885         0.993822          160.89         0.110311        -115.264
60.07                   0.110535        -102.969         0.993917          160.85         0.993806         160.856         0.110491        -115.298
60.08                   0.110718        -103.002         0.993897         160.816         0.993789         160.822         0.110671        -115.332
60.09                   0.110901        -103.034         0.993878         160.782         0.993773         160.788         0.110851        -115.366
60.1                    0.111084        -103.066         0.993858         160.748         0.993756         160.754         0.111031          -115.4
60.11                   0.111267        -103.098         0.993838         160.714         0.993739         160.719         0.111211        -115.434
60.12                    0.11145        -103.131         0.993818          160.68         0.993722         160.685         0.111391        -115.468
60.13                   0.111633        -103.163         0.993798         160.646         0.993706         160.651         0.111571        -115.502
60.14                   0.111816        -103.195         0.993778         160.611         0.993689         160.617         0.111751        -115.536
60.15                   0.111999        -103.227         0.993758         160.577         0.993672         160.583         0.111931         -115.57
60.16                   0.112183         -103.26         0.993737         160.543         0.993654         160.548         0.112111        -115.604
60.17                   0.112366        -103.292         0.993717         160.509         0.993637         160.514         0.112291        -115.638
60.18                   0.112549        -103.324         0.993697         160.475          0.99362          160.48         0.112471        -115.672
60.19                   0.112732        -103.357         0.993677         160.441         0.993603         160.446         0.112652        -115.706
60.2                    0.112915        -103.389         0.993656         160.407         0.993585         160.412         0.112832         -115.74
60.21                   0.113098        -103.422         0.993636         160.373         0.993568         160.378         0.113012        -115.774
60.22                   0.113281        -103.454         0.993615         160.338          0.99355         160.343         0.113193        -115.809
60.23                   0.113464        -103.486         0.993595         160.304         0.993533         160.309         0.113373        -115.843
60.24                   0.113647        -103.519         0.993574          160.27         0.993515         160.275         0.113553        -115.877
60.25                    0.11383        -103.551         0.993554         160.236         0.993497         160.241         0.113734        -115.911
60.26                   0.114014        -103.584         0.993533         160.202         0.993479         160.207         0.113914        -115.945
60.27                   0.114197        -103.616         0.993512         160.168         0.993462         160.173         0.114095        -115.979
60.28                    0.11438        -103.649         0.993491         160.134         0.993444         160.138         0.114275        -116.014
60.29                   0.114563        -103.681         0.993471           160.1         0.993426         160.104         0.114456        -116.048
60.3                    0.114746        -103.714          0.99345         160.066         0.993407          160.07         0.114637        -116.082
60.31                   0.114929        -103.746         0.993429         160.031         0.993389         160.036         0.114817        -116.116
60.32                   0.115112        -103.779         0.993408         159.997         0.993371         160.002         0.114998         -116.15
60.33                   0.115295        -103.811         0.993387         159.963         0.993353         159.968         0.115179        -116.185
60.34                   0.115478        -103.844         0.993366         159.929         0.993334         159.934         0.115359        -116.219
60.35                   0.115661        -103.876         0.993345         159.895         0.993316         159.899          0.11554        -116.253
60.36                   0.115844        -103.909         0.993323         159.861         0.993297         159.865         0.115721        -116.287
60.37                   0.116027        -103.941         0.993302         159.827         0.993279         159.831         0.115902        -116.322
60.38                    0.11621        -103.974         0.993281         159.793          0.99326         159.797         0.116083        -116.356
60.39                   0.116393        -104.007          0.99326         159.759         0.993241         159.763         0.116264         -116.39
60.4                    0.116576        -104.039         0.993238         159.725         0.993222         159.729         0.116445        -116.424
60.41                   0.116759        -104.072         0.993217          159.69         0.993203         159.695         0.116625        -116.459
60.42                   0.116942        -104.104         0.993195         159.656         0.993184          159.66         0.116806        -116.493
60.43                   0.117125        -104.137         0.993174         159.622         0.993165         159.626         0.116987        -116.527
60.44                   0.117308         -104.17         0.993152         159.588         0.993146         159.592         0.117169        -116.562
60.45                   0.117491        -104.202         0.993131         159.554         0.993127         159.558          0.11735        -116.596
60.46                   0.117674        -104.235         0.993109          159.52         0.993108         159.524         0.117531         -116.63
60.47                   0.117857        -104.268         0.993087         159.486         0.993089          159.49         0.117712        -116.665
60.48                    0.11804        -104.301         0.993066         159.452         0.993069         159.456         0.117893        -116.699
60.49                   0.118223        -104.333         0.993044         159.418          0.99305         159.422         0.118074        -116.733
60.5                    0.118406        -104.366         0.993022         159.384          0.99303         159.387         0.118255        -116.768
60.51                   0.118589        -104.399            0.993          159.35         0.993011         159.353         0.118437        -116.802
60.52                   0.118772        -104.432         0.992978         159.316         0.992991         159.319         0.118618        -116.836
60.53                   0.118955        -104.464         0.992956         159.282         0.992971         159.285         0.118799        -116.871
60.54                   0.119138        -104.497         0.992934         159.248         0.992951         159.251         0.118981        -116.905
60.55                   0.119321         -104.53         0.992912         159.214         0.992931         159.217         0.119162         -116.94
60.56                   0.119504        -104.563          0.99289          159.18         0.992911         159.183         0.119343        -116.974
60.57                   0.119687        -104.596         0.992868         159.146         0.992891         159.149         0.119525        -117.008
60.58                   0.119869        -104.628         0.992846         159.111         0.992871         159.115         0.119706        -117.043
60.59                   0.120052        -104.661         0.992823         159.077         0.992851         159.081         0.119888        -117.077
60.6                    0.120235        -104.694         0.992801         159.043         0.992831         159.046         0.120069        -117.112
60.61                   0.120418        -104.727         0.992779         159.009         0.992811         159.012         0.120251        -117.146
60.62                   0.120601         -104.76         0.992756         158.975          0.99279         158.978         0.120432        -117.181
60.63                   0.120784        -104.793         0.992734         158.941          0.99277         158.944         0.120614        -117.215
60.64                   0.120967        -104.826         0.992711         158.907         0.992749          158.91         0.120796         -117.25
60.65                   0.121149        -104.859         0.992689         158.873         0.992729         158.876         0.120977        -117.284
60.66                   0.121332        -104.892         0.992666         158.839         0.992708         158.842         0.121159        -117.319
60.67                   0.121515        -104.925         0.992644         158.805         0.992688         158.808         0.121341        -117.353
60.68                   0.121698        -104.957         0.992621         158.771         0.992667         158.774         0.121522        -117.388
60.69                    0.12188         -104.99         0.992598         158.737         0.992646          158.74         0.121704        -117.422
60.7                    0.122063        -105.023         0.992575         158.703         0.992625         158.706         0.121886        -117.457
60.71                   0.122246        -105.056         0.992553         158.669         0.992604         158.672         0.122068        -117.491
60.72                   0.122429        -105.089          0.99253         158.635         0.992583         158.638          0.12225        -117.526
60.73                   0.122611        -105.122         0.992507         158.601         0.992562         158.603         0.122431         -117.56
60.74                   0.122794        -105.155         0.992484         158.567         0.992541         158.569         0.122613        -117.595
60.75                   0.122977        -105.189         0.992461         158.533          0.99252         158.535         0.122795         -117.63
60.76                    0.12316        -105.222         0.992438         158.499         0.992498         158.501         0.122977        -117.664
60.77                   0.123342        -105.255         0.992415         158.465         0.992477         158.467         0.123159        -117.699
60.78                   0.123525        -105.288         0.992392         158.431         0.992456         158.433         0.123341        -117.733
60.79                   0.123708        -105.321         0.992369         158.397         0.992434         158.399         0.123523        -117.768
60.8                     0.12389        -105.354         0.992345         158.363         0.992413         158.365         0.123705        -117.802
60.81                   0.124073        -105.387         0.992322         158.329         0.992391         158.331         0.123887        -117.837
60.82                   0.124255         -105.42         0.992299         158.295         0.992369         158.297         0.124069        -117.872
60.83                   0.124438        -105.453         0.992275         158.261         0.992348         158.263         0.124251        -117.906
60.84                   0.124621        -105.486         0.992252         158.227         0.992326         158.229         0.124434        -117.941
60.85                   0.124803         -105.52         0.992229         158.193         0.992304         158.195         0.124616        -117.976
60.86                   0.124986        -105.553         0.992205         158.159         0.992282         158.161         0.124798         -118.01
60.87                   0.125168        -105.586         0.992182         158.125          0.99226         158.127          0.12498        -118.045
60.88                   0.125351        -105.619         0.992158         158.091         0.992238         158.093         0.125162         -118.08
60.89                   0.125533        -105.652         0.992134         158.057         0.992216         158.059         0.125345        -118.114
60.9                    0.125716        -105.686         0.992111         158.023         0.992194         158.025         0.125527        -118.149
60.91                   0.125898        -105.719         0.992087         157.989         0.992171         157.991         0.125709        -118.184
60.92                   0.126081        -105.752         0.992063         157.955         0.992149         157.957         0.125892        -118.218
60.93                   0.126263        -105.785         0.992039         157.921         0.992127         157.923         0.126074        -118.253
60.94                   0.126446        -105.819         0.992016         157.887         0.992104         157.889         0.126256        -118.288
60.95                   0.126628        -105.852         0.991992         157.854         0.992082         157.855         0.126439        -118.322
60.96                    0.12681        -105.885         0.991968          157.82         0.992059         157.821         0.126621        -118.357
60.97                   0.126993        -105.918         0.991944         157.786         0.992037         157.787         0.126804        -118.392
60.98                   0.127175        -105.952          0.99192         157.752         0.992014         157.753         0.126986        -118.427
60.99                   0.127358        -105.985         0.991896         157.718         0.991991         157.719         0.127169        -118.461
61                       0.12754        -106.018         0.991872         157.684         0.991968         157.685         0.127351        -118.496
61.01                   0.127722        -106.052         0.991848          157.65         0.991946         157.651         0.127534        -118.531
61.02                   0.127905        -106.085         0.991823         157.616         0.991923         157.617         0.127716        -118.566
61.03                   0.128087        -106.119         0.991799         157.582           0.9919         157.583         0.127899          -118.6
61.04                   0.128269        -106.152         0.991775         157.548         0.991877         157.549         0.128081        -118.635
61.05                   0.128451        -106.185         0.991751         157.514         0.991853         157.515         0.128264         -118.67
61.06                   0.128634        -106.219         0.991726          157.48          0.99183         157.481         0.128447        -118.705
61.07                   0.128816        -106.252         0.991702         157.446         0.991807         157.447         0.128629         -118.74
61.08                   0.128998        -106.286         0.991677         157.412         0.991784         157.413         0.128812        -118.774
61.09                    0.12918        -106.319         0.991653         157.378          0.99176         157.379         0.128995        -118.809
61.1                    0.129362        -106.352         0.991628         157.345         0.991737         157.345         0.129178        -118.844
61.11                   0.129545        -106.386         0.991604         157.311         0.991713         157.311          0.12936        -118.879
61.12                   0.129727        -106.419         0.991579         157.277          0.99169         157.277         0.129543        -118.914
61.13                   0.129909        -106.453         0.991555         157.243         0.991666         157.243         0.129726        -118.949
61.14                   0.130091        -106.486          0.99153         157.209         0.991643         157.209         0.129909        -118.983
61.15                   0.130273         -106.52         0.991505         157.175         0.991619         157.175         0.130092        -119.018
61.16                   0.130455        -106.553         0.991481         157.141         0.991595         157.141         0.130275        -119.053
61.17                   0.130637        -106.587         0.991456         157.107         0.991571         157.107         0.130457        -119.088
61.18                   0.130819        -106.621         0.991431         157.073         0.991548         157.073          0.13064        -119.123
61.19                   0.131001        -106.654         0.991406         157.039         0.991524         157.039         0.130823        -119.158
61.2                    0.131183        -106.688         0.991381         157.005           0.9915         157.005         0.131006        -119.193
61.21                   0.131365        -106.721         0.991356         156.972         0.991476         156.971         0.131189        -119.228
61.22                   0.131547        -106.755         0.991331         156.938         0.991451         156.937         0.131372        -119.262
61.23                   0.131729        -106.789         0.991306         156.904         0.991427         156.903         0.131555        -119.297
61.24                   0.131911        -106.822         0.991281          156.87         0.991403         156.869         0.131738        -119.332
61.25                   0.132093        -106.856         0.991256         156.836         0.991379         156.835         0.131921        -119.367
61.26                   0.132275        -106.889         0.991231         156.802         0.991354         156.801         0.132104        -119.402
61.27                   0.132456        -106.923         0.991206         156.768          0.99133         156.767         0.132288        -119.437
61.28                   0.132638        -106.957          0.99118         156.734         0.991305         156.734         0.132471        -119.472
61.29                    0.13282         -106.99         0.991155         156.701         0.991281           156.7         0.132654        -119.507
61.3                    0.133002        -107.024          0.99113         156.667         0.991256         156.666         0.132837        -119.542
61.31                   0.133184        -107.058         0.991104         156.633         0.991232         156.632          0.13302        -119.577
61.32                   0.133365        -107.092         0.991079         156.599         0.991207         156.598         0.133203        -119.612
61.33                   0.133547        -107.125         0.991053         156.565         0.991182         156.564         0.133386        -119.647
61.34                   0.133729        -107.159         0.991028         156.531         0.991157          156.53          0.13357        -119.682
61.35                   0.133911        -107.193         0.991002         156.497         0.991133         156.496         0.133753        -119.717
61.36                   0.134092        -107.227         0.990977         156.464         0.991108         156.462         0.133936        -119.752
61.37                   0.134274         -107.26         0.990951          156.43         0.991083         156.428          0.13412        -119.787
61.38                   0.134455        -107.294         0.990926         156.396         0.991058         156.394         0.134303        -119.822
61.39                   0.134637        -107.328           0.9909         156.362         0.991033          156.36         0.134486        -119.857
61.4                    0.134819        -107.362         0.990874         156.328         0.991007         156.327          0.13467        -119.892
61.41                      0.135        -107.396         0.990849         156.294         0.990982         156.293         0.134853        -119.927
61.42                   0.135182        -107.429         0.990823          156.26         0.990957         156.259         0.135036        -119.962
61.43                   0.135363        -107.463         0.990797         156.227         0.990932         156.225          0.13522        -119.997
61.44                   0.135545        -107.497         0.990771         156.193         0.990906         156.191         0.135403        -120.032
61.45                   0.135726        -107.531         0.990745         156.159         0.990881         156.157         0.135586        -120.067
61.46                   0.135908        -107.565         0.990719         156.125         0.990855         156.123          0.13577        -120.102
61.47                   0.136089        -107.599         0.990693         156.091          0.99083         156.089         0.135953        -120.137
61.48                    0.13627        -107.633         0.990667         156.057         0.990804         156.055         0.136137        -120.172
61.49                   0.136452        -107.667         0.990641         156.024         0.990779         156.022          0.13632        -120.207
61.5                    0.136633        -107.701         0.990615          155.99         0.990753         155.988         0.136504        -120.242
61.51                   0.136815        -107.735         0.990589         155.956         0.990727         155.954         0.136687        -120.277
61.52                   0.136996        -107.769         0.990563         155.922         0.990702          155.92         0.136871        -120.312
61.53                   0.137177        -107.802         0.990537         155.888         0.990676         155.886         0.137055        -120.347
61.54                   0.137358        -107.836          0.99051         155.855          0.99065         155.852         0.137238        -120.382
61.55                    0.13754         -107.87         0.990484         155.821         0.990624         155.818         0.137422        -120.417
61.56                   0.137721        -107.904         0.990458         155.787         0.990598         155.785         0.137605        -120.452
61.57                   0.137902        -107.939         0.990431         155.753         0.990572         155.751         0.137789        -120.487
61.58                   0.138083        -107.973         0.990405         155.719         0.990546         155.717         0.137973        -120.522
61.59                   0.138264        -108.007         0.990379         155.686          0.99052         155.683         0.138156        -120.557
61.6                    0.138446        -108.041         0.990352         155.652         0.990493         155.649          0.13834        -120.593
61.61                   0.138627        -108.075         0.990326         155.618         0.990467         155.615         0.138524        -120.628
61.62                   0.138808        -108.109         0.990299         155.584         0.990441         155.581         0.138707        -120.663
61.63                   0.138989        -108.143         0.990272          155.55         0.990414         155.548         0.138891        -120.698
61.64                    0.13917        -108.177         0.990246         155.517         0.990388         155.514         0.139075        -120.733
61.65                   0.139351        -108.211         0.990219         155.483         0.990362          155.48         0.139259        -120.768
61.66                   0.139532        -108.245         0.990192         155.449         0.990335         155.446         0.139442        -120.803
61.67                   0.139713        -108.279         0.990166         155.415         0.990309         155.412         0.139626        -120.838
61.68                   0.139894        -108.314         0.990139         155.382         0.990282         155.378          0.13981        -120.873
61.69                   0.140075        -108.348         0.990112         155.348         0.990255         155.345         0.139994        -120.909
61.7                    0.140256        -108.382         0.990085         155.314         0.990229         155.311         0.140178        -120.944
61.71                   0.140437        -108.416         0.990059          155.28         0.990202         155.277         0.140361        -120.979
61.72                   0.140617         -108.45         0.990032         155.247         0.990175         155.243         0.140545        -121.014
61.73                   0.140798        -108.485         0.990005         155.213         0.990148         155.209         0.140729        -121.049
61.74                   0.140979        -108.519         0.989978         155.179         0.990121         155.176         0.140913        -121.084
61.75                    0.14116        -108.553         0.989951         155.145         0.990094         155.142         0.141097        -121.119
61.76                   0.141341        -108.587         0.989924         155.112         0.990067         155.108         0.141281        -121.155
61.77                   0.141521        -108.622         0.989897         155.078          0.99004         155.074         0.141465         -121.19
61.78                   0.141702        -108.656          0.98987         155.044         0.990013          155.04         0.141649        -121.225
61.79                   0.141883         -108.69         0.989842          155.01         0.989986         155.007         0.141833         -121.26
61.8                    0.142064        -108.725         0.989815         154.977         0.989959         154.973         0.142017        -121.295
61.81                   0.142244        -108.759         0.989788         154.943         0.989931         154.939         0.142201         -121.33
61.82                   0.142425        -108.793         0.989761         154.909         0.989904         154.905         0.142385        -121.366
61.83                   0.142605        -108.828         0.989733         154.875         0.989877         154.871         0.142569        -121.401
61.84                   0.142786        -108.862         0.989706         154.842         0.989849         154.838         0.142753        -121.436
61.85                   0.142967        -108.896         0.989679         154.808         0.989822         154.804         0.142937        -121.471
61.86                   0.143147        -108.931         0.989651         154.774         0.989794          154.77         0.143121        -121.506
61.87                   0.143328        -108.965         0.989624          154.74         0.989767         154.736         0.143305        -121.542
61.88                   0.143508            -109         0.989597         154.707         0.989739         154.703         0.143489        -121.577
61.89                   0.143689        -109.034         0.989569         154.673         0.989712         154.669         0.143673        -121.612
61.9                    0.143869        -109.069         0.989542         154.639         0.989684         154.635         0.143857        -121.647
61.91                    0.14405        -109.103         0.989514         154.606         0.989656         154.601         0.144041        -121.682
61.92                    0.14423        -109.138         0.989486         154.572         0.989629         154.567         0.144225        -121.717
61.93                    0.14441        -109.172         0.989459         154.538         0.989601         154.534         0.144409        -121.753
61.94                   0.144591        -109.207         0.989431         154.504         0.989573           154.5         0.144594        -121.788
61.95                   0.144771        -109.241         0.989404         154.471         0.989545         154.466         0.144778        -121.823
61.96                   0.144951        -109.276         0.989376         154.437         0.989517         154.432         0.144962        -121.858
61.97                   0.145132         -109.31         0.989348         154.403         0.989489         154.399         0.145146        -121.894