! TOUCHSTONE file generated by CST MICROWAVE STUDIO
! Date and time: Sat Feb 17 14:29:58 2024
! Project name: MUT_rotado.cst
! Parameters = {AngX=0.25}
! Header version: 2018
! Port assignment regex: !\s*Touchstone port\s*([0-9]+)\s*=\s*(CST MWS port|CST DS port)\s*([0-9]+|Zmin|Zmax)\s*\(\"(.*)\"\)(\s*mode\s*([0-9]+))?.*
! Touchstone port assignment:
! Touchstone port 1 = CST MWS port 1 ("")
! Touchstone port 2 = CST MWS port 2 ("")
# GHz S MA R 376.7
60                      0.110383        -105.891         0.993842         160.945         0.993939         160.939         0.110334        -112.183
60.01                   0.110563        -105.925         0.993823         160.911          0.99392         160.905         0.110515        -112.216
60.02                   0.110743        -105.958         0.993803         160.877           0.9939         160.871         0.110695        -112.249
60.03                   0.110923        -105.992         0.993784         160.843         0.993881         160.837         0.110876        -112.282
60.04                   0.111103        -106.025         0.993764         160.809         0.993861         160.803         0.111056        -112.315
60.05                   0.111284        -106.059         0.993744         160.775         0.993841         160.768         0.111237        -112.348
60.06                   0.111464        -106.092         0.993724         160.741         0.993821         160.734         0.111417        -112.381
60.07                   0.111644        -106.126         0.993705         160.706         0.993801           160.7         0.111598        -112.414
60.08                   0.111824        -106.159         0.993685         160.672         0.993782         160.666         0.111778        -112.447
60.09                   0.112005        -106.193         0.993665         160.638         0.993762         160.632         0.111959         -112.48
60.1                    0.112185        -106.227         0.993645         160.604         0.993742         160.597          0.11214        -112.513
60.11                   0.112365         -106.26         0.993625          160.57         0.993722         160.563          0.11232        -112.546
60.12                   0.112546        -106.294         0.993605         160.536         0.993702         160.529         0.112501         -112.58
60.13                   0.112726        -106.327         0.993585         160.502         0.993681         160.495         0.112682        -112.613
60.14                   0.112907        -106.361         0.993565         160.467         0.993661         160.461         0.112862        -112.646
60.15                   0.113087        -106.395         0.993545         160.433         0.993641         160.426         0.113043        -112.679
60.16                   0.113268        -106.428         0.993525         160.399         0.993621         160.392         0.113224        -112.712
60.17                   0.113448        -106.462         0.993505         160.365           0.9936         160.358         0.113405        -112.745
60.18                   0.113629        -106.496         0.993484         160.331          0.99358         160.324         0.113585        -112.779
60.19                   0.113809        -106.529         0.993464         160.297          0.99356          160.29         0.113766        -112.812
60.2                     0.11399        -106.563         0.993444         160.263         0.993539         160.256         0.113947        -112.845
60.21                    0.11417        -106.597         0.993423         160.229         0.993519         160.221         0.114128        -112.878
60.22                   0.114351         -106.63         0.993403         160.194         0.993498         160.187         0.114309        -112.912
60.23                   0.114532        -106.664         0.993383          160.16         0.993478         160.153          0.11449        -112.945
60.24                   0.114712        -106.698         0.993362         160.126         0.993457         160.119         0.114671        -112.978
60.25                   0.114893        -106.732         0.993342         160.092         0.993436         160.085         0.114852        -113.012
60.26                   0.115074        -106.765         0.993321         160.058         0.993415          160.05         0.115033        -113.045
60.27                   0.115254        -106.799         0.993301         160.024         0.993395         160.016         0.115214        -113.078
60.28                   0.115435        -106.833          0.99328          159.99         0.993374         159.982         0.115395        -113.112
60.29                   0.115616        -106.867         0.993259         159.955         0.993353         159.948         0.115576        -113.145
60.3                    0.115797          -106.9         0.993239         159.921         0.993332         159.914         0.115757        -113.178
60.31                   0.115978        -106.934         0.993218         159.887         0.993311          159.88         0.115938        -113.212
60.32                   0.116159        -106.968         0.993197         159.853          0.99329         159.845          0.11612        -113.245
60.33                   0.116339        -107.002         0.993176         159.819         0.993269         159.811         0.116301        -113.278
60.34                    0.11652        -107.035         0.993155         159.785         0.993248         159.777         0.116482        -113.312
60.35                   0.116701        -107.069         0.993135         159.751         0.993227         159.743         0.116663        -113.345
60.36                   0.116882        -107.103         0.993114         159.717         0.993206         159.709         0.116844        -113.379
60.37                   0.117063        -107.137         0.993093         159.682         0.993184         159.675         0.117026        -113.412
60.38                   0.117244        -107.171         0.993072         159.648         0.993163         159.641         0.117207        -113.446
60.39                   0.117425        -107.205         0.993051         159.614         0.993142         159.606         0.117388        -113.479
60.4                    0.117606        -107.238         0.993029          159.58          0.99312         159.572          0.11757        -113.513
60.41                   0.117787        -107.272         0.993008         159.546         0.993099         159.538         0.117751        -113.546
60.42                   0.117969        -107.306         0.992987         159.512         0.993077         159.504         0.117933         -113.58
60.43                    0.11815         -107.34         0.992966         159.478         0.993056          159.47         0.118114        -113.613
60.44                   0.118331        -107.374         0.992945         159.444         0.993034         159.436         0.118295        -113.647
60.45                   0.118512        -107.408         0.992923         159.409         0.993013         159.402         0.118477         -113.68
60.46                   0.118693        -107.442         0.992902         159.375         0.992991         159.367         0.118658        -113.714
60.47                   0.118874        -107.475         0.992881         159.341          0.99297         159.333          0.11884        -113.748
60.48                   0.119056        -107.509         0.992859         159.307         0.992948         159.299         0.119021        -113.781
60.49                   0.119237        -107.543         0.992838         159.273         0.992926         159.265         0.119203        -113.815
60.5                    0.119418        -107.577         0.992816         159.239         0.992904         159.231         0.119384        -113.849
60.51                   0.119599        -107.611         0.992795         159.205         0.992882         159.197         0.119566        -113.882
60.52                   0.119781        -107.645         0.992773         159.171          0.99286         159.163         0.119748        -113.916
60.53                   0.119962        -107.679         0.992752         159.137         0.992838         159.128         0.119929         -113.95
60.54                   0.120143        -107.713          0.99273         159.102         0.992816         159.094         0.120111        -113.983
60.55                   0.120325        -107.747         0.992708         159.068         0.992794          159.06         0.120293        -114.017
60.56                   0.120506        -107.781         0.992687         159.034         0.992772         159.026         0.120474        -114.051
60.57                   0.120688        -107.815         0.992665             159          0.99275         158.992         0.120656        -114.084
60.58                   0.120869        -107.849         0.992643         158.966         0.992728         158.958         0.120838        -114.118
60.59                   0.121051        -107.883         0.992621         158.932         0.992706         158.924         0.121019        -114.152
60.6                    0.121232        -107.917         0.992599         158.898         0.992684          158.89         0.121201        -114.186
60.61                   0.121414        -107.951         0.992577         158.864         0.992661         158.856         0.121383        -114.219
60.62                   0.121595        -107.985         0.992555          158.83         0.992639         158.821         0.121565        -114.253
60.63                   0.121777        -108.019         0.992533         158.795         0.992617         158.787         0.121747        -114.287
60.64                   0.121958        -108.053         0.992511         158.761         0.992594         158.753         0.121929        -114.321
60.65                    0.12214        -108.087         0.992489         158.727         0.992572         158.719          0.12211        -114.354
60.66                   0.122321        -108.121         0.992467         158.693         0.992549         158.685         0.122292        -114.388
60.67                   0.122503        -108.155         0.992445         158.659         0.992527         158.651         0.122474        -114.422
60.68                   0.122685        -108.189         0.992423         158.625         0.992504         158.617         0.122656        -114.456
60.69                   0.122866        -108.223         0.992401         158.591         0.992481         158.583         0.122838         -114.49
60.7                    0.123048        -108.257         0.992378         158.557         0.992459         158.549          0.12302        -114.524
60.71                    0.12323        -108.291         0.992356         158.523         0.992436         158.515         0.123202        -114.558
60.72                   0.123411        -108.325         0.992334         158.489         0.992413          158.48         0.123384        -114.591
60.73                   0.123593        -108.359         0.992311         158.454          0.99239         158.446         0.123566        -114.625
60.74                   0.123775        -108.393         0.992289          158.42         0.992367         158.412         0.123748        -114.659
60.75                   0.123957        -108.427         0.992267         158.386         0.992345         158.378          0.12393        -114.693
60.76                   0.124138        -108.461         0.992244         158.352         0.992322         158.344         0.124112        -114.727
60.77                    0.12432        -108.495         0.992221         158.318         0.992299          158.31         0.124294        -114.761
60.78                   0.124502        -108.529         0.992199         158.284         0.992276         158.276         0.124476        -114.795
60.79                   0.124684        -108.563         0.992176          158.25         0.992253         158.242         0.124658        -114.829
60.8                    0.124866        -108.597         0.992154         158.216         0.992229         158.208         0.124841        -114.863
60.81                   0.125048        -108.631         0.992131         158.182         0.992206         158.174         0.125023        -114.897
60.82                    0.12523        -108.666         0.992108         158.148         0.992183          158.14         0.125205        -114.931
60.83                   0.125411          -108.7         0.992085         158.114          0.99216         158.106         0.125387        -114.965
60.84                   0.125593        -108.734         0.992063          158.08         0.992137         158.071         0.125569        -114.999
60.85                   0.125775        -108.768          0.99204         158.045         0.992113         158.037         0.125752        -115.033
60.86                   0.125957        -108.802         0.992017         158.011          0.99209         158.003         0.125934        -115.067
60.87                   0.126139        -108.836         0.991994         157.977         0.992066         157.969         0.126116        -115.101
60.88                   0.126321         -108.87         0.991971         157.943         0.992043         157.935         0.126298        -115.135
60.89                   0.126503        -108.904         0.991948         157.909         0.992019         157.901         0.126481        -115.169
60.9                    0.126685        -108.939         0.991925         157.875         0.991996         157.867         0.126663        -115.203
60.91                   0.126867        -108.973         0.991902         157.841         0.991972         157.833         0.126845        -115.237
60.92                   0.127049        -109.007         0.991879         157.807         0.991949         157.799         0.127028        -115.272
60.93                   0.127232        -109.041         0.991856         157.773         0.991925         157.765          0.12721        -115.306
60.94                   0.127414        -109.075         0.991833         157.739         0.991901         157.731         0.127392         -115.34
60.95                   0.127596        -109.109         0.991809         157.705         0.991878         157.697         0.127575        -115.374
60.96                   0.127778        -109.144         0.991786         157.671         0.991854         157.663         0.127757        -115.408
60.97                    0.12796        -109.178         0.991763         157.637          0.99183         157.629         0.127939        -115.442
60.98                   0.128142        -109.212         0.991739         157.602         0.991806         157.595         0.128122        -115.476
60.99                   0.128324        -109.246         0.991716         157.568         0.991782         157.561         0.128304        -115.511
61                      0.128507         -109.28         0.991693         157.534         0.991758         157.527         0.128487        -115.545
61.01                   0.128689        -109.315         0.991669           157.5         0.991734         157.493         0.128669        -115.579
61.02                   0.128871        -109.349         0.991646         157.466          0.99171         157.459         0.128852        -115.613
61.03                   0.129053        -109.383         0.991622         157.432         0.991686         157.425         0.129034        -115.647
61.04                   0.129236        -109.417         0.991599         157.398         0.991662         157.391         0.129217        -115.682
61.05                   0.129418        -109.451         0.991575         157.364         0.991638         157.357         0.129399        -115.716
61.06                     0.1296        -109.486         0.991551          157.33         0.991614         157.322         0.129582         -115.75
61.07                   0.129783         -109.52         0.991528         157.296          0.99159         157.288         0.129764        -115.784
61.08                   0.129965        -109.554         0.991504         157.262         0.991565         157.254         0.129947        -115.819
61.09                   0.130147        -109.588          0.99148         157.228         0.991541          157.22          0.13013        -115.853
61.1                     0.13033        -109.623         0.991456         157.194         0.991517         157.186         0.130312        -115.887
61.11                   0.130512        -109.657         0.991433          157.16         0.991492         157.152         0.130495        -115.922
61.12                   0.130694        -109.691         0.991409         157.126         0.991468         157.118         0.130677        -115.956
61.13                   0.130877        -109.725         0.991385         157.092         0.991443         157.084          0.13086         -115.99
61.14                   0.131059         -109.76         0.991361         157.058         0.991419          157.05         0.131043        -116.024
61.15                   0.131242        -109.794         0.991337         157.024         0.991394         157.016         0.131225        -116.059
61.16                   0.131424        -109.828         0.991313         156.989          0.99137         156.982         0.131408        -116.093
61.17                   0.131607        -109.862         0.991289         156.955         0.991345         156.948         0.131591        -116.127
61.18                   0.131789        -109.897         0.991265         156.921         0.991321         156.914         0.131773        -116.162
61.19                   0.131972        -109.931         0.991241         156.887         0.991296          156.88         0.131956        -116.196
61.2                    0.132154        -109.965         0.991217         156.853         0.991271         156.846         0.132139        -116.231
61.21                   0.132337            -110         0.991192         156.819         0.991246         156.812         0.132322        -116.265
61.22                   0.132519        -110.034         0.991168         156.785         0.991222         156.778         0.132504        -116.299
61.23                   0.132702        -110.068         0.991144         156.751         0.991197         156.744         0.132687        -116.334
61.24                   0.132884        -110.102          0.99112         156.717         0.991172          156.71          0.13287        -116.368
61.25                   0.133067        -110.137         0.991095         156.683         0.991147         156.676         0.133053        -116.403
61.26                   0.133249        -110.171         0.991071         156.649         0.991122         156.642         0.133236        -116.437
61.27                   0.133432        -110.205         0.991046         156.615         0.991097         156.608         0.133418        -116.471
61.28                   0.133615         -110.24         0.991022         156.581         0.991072         156.574         0.133601        -116.506
61.29                   0.133797        -110.274         0.990997         156.547         0.991047         156.541         0.133784         -116.54
61.3                     0.13398        -110.308         0.990973         156.513         0.991022         156.507         0.133967        -116.575
61.31                   0.134162        -110.343         0.990948         156.479         0.990996         156.473          0.13415        -116.609
61.32                   0.134345        -110.377         0.990924         156.445         0.990971         156.439         0.134333        -116.644
61.33                   0.134528        -110.411         0.990899         156.411         0.990946         156.405         0.134516        -116.678
61.34                    0.13471        -110.446         0.990874         156.377         0.990921         156.371         0.134698        -116.713
61.35                   0.134893         -110.48          0.99085         156.343         0.990895         156.337         0.134881        -116.747
61.36                   0.135076        -110.514         0.990825         156.309          0.99087         156.303         0.135064        -116.782
61.37                   0.135259        -110.549           0.9908         156.275         0.990845         156.269         0.135247        -116.816
61.38                   0.135441        -110.583         0.990775         156.241         0.990819         156.235          0.13543        -116.851
61.39                   0.135624        -110.617          0.99075         156.207         0.990794         156.201         0.135613        -116.885
61.4                    0.135807        -110.652         0.990726         156.173         0.990768         156.167         0.135796         -116.92
61.41                    0.13599        -110.686         0.990701         156.139         0.990743         156.133         0.135979        -116.954
61.42                   0.136172         -110.72         0.990676         156.105         0.990717         156.099         0.136162        -116.989
61.43                   0.136355        -110.755         0.990651         156.071         0.990691         156.065         0.136345        -117.024
61.44                   0.136538        -110.789         0.990626         156.037         0.990666         156.031         0.136528        -117.058
61.45                   0.136721        -110.823         0.990601         156.003          0.99064         155.997         0.136711        -117.093
61.46                   0.136904        -110.858         0.990575         155.969         0.990614         155.963         0.136894        -117.127
61.47                   0.137086        -110.892          0.99055         155.935         0.990589         155.929         0.137077        -117.162
61.48                   0.137269        -110.926         0.990525         155.901         0.990563         155.895          0.13726        -117.196
61.49                   0.137452        -110.961           0.9905         155.867         0.990537         155.861         0.137443        -117.231
61.5                    0.137635        -110.995         0.990475         155.833         0.990511         155.828         0.137626        -117.266
61.51                   0.137818        -111.029         0.990449         155.799         0.990485         155.794         0.137809          -117.3
61.52                   0.138001        -111.064         0.990424         155.765         0.990459          155.76         0.137992        -117.335
61.53                   0.138184        -111.098         0.990399         155.731         0.990433         155.726         0.138175         -117.37
61.54                   0.138367        -111.132         0.990373         155.697         0.990407         155.692         0.138358        -117.404
61.55                    0.13855        -111.167         0.990348         155.663         0.990381         155.658         0.138541        -117.439
61.56                   0.138732        -111.201         0.990322         155.629         0.990355         155.624         0.138725        -117.473
61.57                   0.138915        -111.236         0.990297         155.595         0.990329          155.59         0.138908        -117.508
61.58                   0.139098         -111.27         0.990271         155.561         0.990303         155.556         0.139091        -117.543
61.59                   0.139281        -111.304         0.990246         155.527         0.990277         155.522         0.139274        -117.577
61.6                    0.139464        -111.339          0.99022         155.493          0.99025         155.488         0.139457        -117.612
61.61                   0.139647        -111.373         0.990194         155.459         0.990224         155.454          0.13964        -117.647
61.62                    0.13983        -111.407         0.990169         155.425         0.990198         155.421         0.139823        -117.681
61.63                   0.140013        -111.442         0.990143         155.391         0.990171         155.387         0.140007        -117.716
61.64                   0.140196        -111.476         0.990117         155.357         0.990145         155.353          0.14019        -117.751
61.65                   0.140379        -111.511         0.990091         155.323         0.990119         155.319         0.140373        -117.786
61.66                   0.140562        -111.545         0.990066         155.289         0.990092         155.285         0.140556         -117.82
61.67                   0.140745        -111.579          0.99004         155.255         0.990066         155.251         0.140739        -117.855
61.68                   0.140928        -111.614         0.990014         155.221         0.990039         155.217         0.140922         -117.89
61.69                   0.141111        -111.648         0.989988         155.187         0.990013         155.183         0.141106        -117.924
61.7                    0.141294        -111.682         0.989962         155.153         0.989986         155.149         0.141289        -117.959
61.71                   0.141477        -111.717         0.989936         155.119         0.989959         155.115         0.141472        -117.994
61.72                   0.141661        -111.751          0.98991         155.085         0.989933         155.082         0.141655        -118.029
61.73                   0.141844        -111.786         0.989884         155.051         0.989906         155.048         0.141838        -118.063
61.74                   0.142027         -111.82         0.989858         155.017         0.989879         155.014         0.142022        -118.098
61.75                    0.14221        -111.854         0.989831         154.983         0.989852          154.98         0.142205        -118.133
61.76                   0.142393        -111.889         0.989805         154.949         0.989826         154.946         0.142388        -118.168
61.77                   0.142576        -111.923         0.989779         154.915         0.989799         154.912         0.142571        -118.202
61.78                   0.142759        -111.957         0.989753         154.881         0.989772         154.878         0.142755        -118.237
61.79                   0.142942        -111.992         0.989726         154.847         0.989745         154.844         0.142938        -118.272
61.8                    0.143125        -112.026           0.9897         154.814         0.989718         154.811         0.143121        -118.307
61.81                   0.143308         -112.06         0.989674          154.78         0.989691         154.777         0.143304        -118.342
61.82                   0.143492        -112.095         0.989647         154.746         0.989664         154.743         0.143488        -118.376
61.83                   0.143675        -112.129         0.989621         154.712         0.989637         154.709         0.143671        -118.411
61.84                   0.143858        -112.164         0.989594         154.678          0.98961         154.675         0.143854        -118.446
61.85                   0.144041        -112.198         0.989568         154.644         0.989583         154.641         0.144038        -118.481
61.86                   0.144224        -112.232         0.989541          154.61         0.989556         154.608         0.144221        -118.516
61.87                   0.144407        -112.267         0.989515         154.576         0.989529         154.574         0.144404         -118.55
61.88                    0.14459        -112.301         0.989488         154.542         0.989501          154.54         0.144587        -118.585
61.89                   0.144774        -112.335         0.989462         154.508         0.989474         154.506         0.144771         -118.62
61.9                    0.144957         -112.37         0.989435         154.474         0.989447         154.472         0.144954        -118.655
61.91                    0.14514        -112.404         0.989408          154.44         0.989419         154.438         0.145137         -118.69
61.92                   0.145323        -112.438         0.989381         154.406         0.989392         154.404         0.145321        -118.724
61.93                   0.145506        -112.473         0.989355         154.372         0.989365         154.371         0.145504        -118.759
61.94                   0.145689        -112.507         0.989328         154.338         0.989337         154.337         0.145687        -118.794
61.95                   0.145873        -112.542         0.989301         154.304          0.98931         154.303         0.145871        -118.829
61.96                   0.146056        -112.576         0.989274         154.271         0.989282         154.269         0.146054        -118.864
61.97                   0.146239         -112.61         0.989247         154.237         0.989255         154.235         0.146237        -118.899