! TOUCHSTONE file generated by CST MICROWAVE STUDIO
! Date and time: Sat Feb 17 14:30:11 2024
! Project name: MUT_rotado.cst
! Parameters = {AngX=2}
! Header version: 2018
! Port assignment regex: !\s*Touchstone port\s*([0-9]+)\s*=\s*(CST MWS port|CST DS port)\s*([0-9]+|Zmin|Zmax)\s*\(\"(.*)\"\)(\s*mode\s*([0-9]+))?.*
! Touchstone port assignment:
! Touchstone port 1 = CST MWS port 1 ("")
! Touchstone port 2 = CST MWS port 2 ("")
# GHz S MA R 376.7
60                      0.102827        -82.6884         0.994394         161.365         0.994616         161.357         0.102817         -134.57
60.01                   0.102983        -82.7209         0.994384         161.331         0.994602         161.324         0.102972        -134.606
60.02                   0.103138        -82.7533         0.994374         161.298         0.994587         161.291         0.103127        -134.641
60.03                   0.103294        -82.7858         0.994364         161.265         0.994573         161.257         0.103282        -134.676
60.04                   0.103449        -82.8181         0.994354         161.231         0.994558         161.224         0.103437        -134.712
60.05                   0.103605        -82.8505         0.994344         161.198         0.994543         161.191         0.103592        -134.747
60.06                   0.103761        -82.8829         0.994333         161.164         0.994528         161.157         0.103748        -134.782
60.07                   0.103917        -82.9152         0.994323         161.131         0.994514         161.124         0.103903        -134.818
60.08                   0.104073        -82.9475         0.994313         161.098         0.994499          161.09         0.104059        -134.853
60.09                   0.104229        -82.9797         0.994302         161.064         0.994484         161.057         0.104214        -134.888
60.1                    0.104385         -83.012         0.994292         161.031         0.994469         161.024          0.10437        -134.924
60.11                   0.104541        -83.0442         0.994281         160.998         0.994454          160.99         0.104526        -134.959
60.12                   0.104698        -83.0764          0.99427         160.964         0.994439         160.957         0.104681        -134.995
60.13                   0.104854        -83.1086          0.99426         160.931         0.994424         160.924         0.104837         -135.03
60.14                   0.105011        -83.1408         0.994249         160.897         0.994409          160.89         0.104993        -135.065
60.15                   0.105167        -83.1729         0.994238         160.864         0.994394         160.857         0.105149        -135.101
60.16                   0.105324         -83.205         0.994227         160.831         0.994379         160.824         0.105305        -135.136
60.17                    0.10548        -83.2371         0.994216         160.797         0.994363          160.79         0.105462        -135.172
60.18                   0.105637        -83.2692         0.994205         160.764         0.994348         160.757         0.105618        -135.207
60.19                   0.105794        -83.3012         0.994193          160.73         0.994333         160.724         0.105774        -135.243
60.2                    0.105951        -83.3333         0.994182         160.697         0.994317          160.69         0.105931        -135.278
60.21                   0.106108        -83.3653         0.994171         160.664         0.994302         160.657         0.106087        -135.314
60.22                   0.106265        -83.3972         0.994159          160.63         0.994287         160.624         0.106244        -135.349
60.23                   0.106422        -83.4292         0.994148         160.597         0.994271          160.59           0.1064        -135.385
60.24                   0.106579        -83.4612         0.994136         160.563         0.994256         160.557         0.106557         -135.42
60.25                   0.106737        -83.4931         0.994124          160.53          0.99424         160.523         0.106714        -135.456
60.26                   0.106894         -83.525         0.994113         160.497         0.994224          160.49         0.106871        -135.491
60.27                   0.107052        -83.5569         0.994101         160.463         0.994209         160.457         0.107027        -135.527
60.28                   0.107209        -83.5887         0.994089          160.43         0.994193         160.423         0.107184        -135.562
60.29                   0.107367        -83.6206         0.994077         160.396         0.994177          160.39         0.107341        -135.598
60.3                    0.107524        -83.6524         0.994065         160.363         0.994162         160.357         0.107499        -135.633
60.31                   0.107682        -83.6842         0.994053          160.33         0.994146         160.323         0.107656        -135.669
60.32                    0.10784         -83.716         0.994041         160.296          0.99413          160.29         0.107813        -135.704
60.33                   0.107998        -83.7477         0.994028         160.263         0.994114         160.257          0.10797         -135.74
60.34                   0.108156        -83.7795         0.994016         160.229         0.994098         160.223         0.108128        -135.776
60.35                   0.108314        -83.8112         0.994004         160.196         0.994082          160.19         0.108285        -135.811
60.36                   0.108472        -83.8429         0.993991         160.163         0.994066         160.156         0.108443        -135.847
60.37                    0.10863        -83.8746         0.993978         160.129          0.99405         160.123         0.108601        -135.882
60.38                   0.108788        -83.9063         0.993966         160.096         0.994034          160.09         0.108758        -135.918
60.39                   0.108947        -83.9379         0.993953         160.062         0.994018         160.056         0.108916        -135.954
60.4                    0.109105        -83.9696          0.99394         160.029         0.994001         160.023         0.109074        -135.989
60.41                   0.109264        -84.0012         0.993927         159.996         0.993985          159.99         0.109232        -136.025
60.42                   0.109422        -84.0328         0.993914         159.962         0.993969         159.956          0.10939        -136.061
60.43                   0.109581        -84.0644         0.993901         159.929         0.993952         159.923         0.109548        -136.096
60.44                   0.109739         -84.096         0.993888         159.895         0.993936         159.889         0.109706        -136.132
60.45                   0.109898        -84.1275         0.993875         159.862          0.99392         159.856         0.109864        -136.168
60.46                   0.110057         -84.159         0.993862         159.829         0.993903         159.823         0.110023        -136.203
60.47                   0.110216        -84.1905         0.993849         159.795         0.993887         159.789         0.110181        -136.239
60.48                   0.110375         -84.222         0.993835         159.762          0.99387         159.756         0.110339        -136.275
60.49                   0.110534        -84.2535         0.993822         159.728         0.993853         159.722         0.110498         -136.31
60.5                    0.110693         -84.285         0.993808         159.695         0.993837         159.689         0.110656        -136.346
60.51                   0.110852        -84.3164         0.993795         159.661          0.99382         159.656         0.110815        -136.382
60.52                   0.111011        -84.3479         0.993781         159.628         0.993803         159.622         0.110974        -136.417
60.53                   0.111171        -84.3793         0.993767         159.595         0.993787         159.589         0.111132        -136.453
60.54                    0.11133        -84.4107         0.993753         159.561          0.99377         159.555         0.111291        -136.489
60.55                   0.111489        -84.4421         0.993739         159.528         0.993753         159.522          0.11145        -136.525
60.56                   0.111649        -84.4735         0.993725         159.494         0.993736         159.489         0.111609         -136.56
60.57                   0.111809        -84.5048         0.993711         159.461         0.993719         159.455         0.111768        -136.596
60.58                   0.111968        -84.5362         0.993697         159.427         0.993702         159.422         0.111927        -136.632
60.59                   0.112128        -84.5675         0.993683         159.394         0.993685         159.388         0.112086        -136.668
60.6                    0.112288        -84.5988         0.993669         159.361         0.993668         159.355         0.112246        -136.704
60.61                   0.112447        -84.6301         0.993654         159.327         0.993651         159.322         0.112405        -136.739
60.62                   0.112607        -84.6614          0.99364         159.294         0.993634         159.288         0.112564        -136.775
60.63                   0.112767        -84.6927         0.993626          159.26         0.993617         159.255         0.112724        -136.811
60.64                   0.112927        -84.7239         0.993611         159.227         0.993599         159.221         0.112883        -136.847
60.65                   0.113087        -84.7551         0.993596         159.193         0.993582         159.188         0.113043        -136.883
60.66                   0.113247        -84.7864         0.993582          159.16         0.993565         159.155         0.113203        -136.918
60.67                   0.113408        -84.8176         0.993567         159.127         0.993547         159.121         0.113362        -136.954
60.68                   0.113568        -84.8488         0.993552         159.093          0.99353         159.088         0.113522         -136.99
60.69                   0.113728          -84.88         0.993537          159.06         0.993512         159.054         0.113682        -137.026
60.7                    0.113889        -84.9111         0.993522         159.026         0.993495         159.021         0.113842        -137.062
60.71                   0.114049        -84.9423         0.993507         158.993         0.993477         158.987         0.114002        -137.098
60.72                    0.11421        -84.9735         0.993492         158.959          0.99346         158.954         0.114162        -137.134
60.73                    0.11437        -85.0046         0.993477         158.926         0.993442         158.921         0.114322        -137.169
60.74                   0.114531        -85.0357         0.993461         158.892         0.993424         158.887         0.114482        -137.205
60.75                   0.114692        -85.0668         0.993446         158.859         0.993407         158.854         0.114642        -137.241
60.76                   0.114852        -85.0979          0.99343         158.826         0.993389          158.82         0.114802        -137.277
60.77                   0.115013         -85.129         0.993415         158.792         0.993371         158.787         0.114963        -137.313
60.78                   0.115174        -85.1601         0.993399         158.759         0.993353         158.754         0.115123        -137.349
60.79                   0.115335        -85.1911         0.993384         158.725         0.993335          158.72         0.115284        -137.385
60.8                    0.115496        -85.2222         0.993368         158.692         0.993318         158.687         0.115444        -137.421
60.81                   0.115657        -85.2532         0.993352         158.658           0.9933         158.653         0.115605        -137.457
60.82                   0.115818        -85.2842         0.993336         158.625         0.993282          158.62         0.115765        -137.493
60.83                   0.115979        -85.3153          0.99332         158.591         0.993264         158.586         0.115926        -137.529
60.84                    0.11614        -85.3463         0.993304         158.558         0.993245         158.553         0.116087        -137.565
60.85                   0.116302        -85.3772         0.993288         158.524         0.993227         158.519         0.116248        -137.601
60.86                   0.116463        -85.4082         0.993272         158.491         0.993209         158.486         0.116409        -137.637
60.87                   0.116624        -85.4392         0.993256         158.458         0.993191         158.453          0.11657        -137.673
60.88                   0.116786        -85.4701         0.993239         158.424         0.993173         158.419         0.116731        -137.709
60.89                   0.116947        -85.5011         0.993223         158.391         0.993154         158.386         0.116892        -137.745
60.9                    0.117109         -85.532         0.993207         158.357         0.993136         158.352         0.117053        -137.781
60.91                   0.117271         -85.563          0.99319         158.324         0.993118         158.319         0.117214        -137.817
60.92                   0.117432        -85.5939         0.993174          158.29         0.993099         158.285         0.117375        -137.853
60.93                   0.117594        -85.6248         0.993157         158.257         0.993081         158.252         0.117537        -137.889
60.94                   0.117756        -85.6557          0.99314         158.223         0.993062         158.219         0.117698        -137.925
60.95                   0.117918        -85.6866         0.993123          158.19         0.993044         158.185          0.11786        -137.961
60.96                   0.118079        -85.7174         0.993106         158.156         0.993025         158.152         0.118021        -137.997
60.97                   0.118241        -85.7483         0.993089         158.123         0.993006         158.118         0.118183        -138.033
60.98                   0.118403        -85.7792         0.993072         158.089         0.992988         158.085         0.118344        -138.069
60.99                   0.118565          -85.81         0.993055         158.056         0.992969         158.051         0.118506        -138.105
61                      0.118727        -85.8408         0.993038         158.023          0.99295         158.018         0.118668        -138.141
61.01                    0.11889        -85.8717         0.993021         157.989         0.992931         157.984         0.118829        -138.177
61.02                   0.119052        -85.9025         0.993004         157.956         0.992913         157.951         0.118991        -138.213
61.03                   0.119214        -85.9333         0.992986         157.922         0.992894         157.917         0.119153        -138.249
61.04                   0.119376        -85.9641         0.992969         157.889         0.992875         157.884         0.119315        -138.285
61.05                   0.119539        -85.9949         0.992951         157.855         0.992856         157.851         0.119477        -138.321
61.06                   0.119701        -86.0257         0.992934         157.822         0.992837         157.817         0.119639        -138.357
61.07                   0.119864        -86.0565         0.992916         157.788         0.992818         157.784         0.119801        -138.394
61.08                   0.120026        -86.0872         0.992898         157.755         0.992799          157.75         0.119964         -138.43
61.09                   0.120189         -86.118          0.99288         157.721         0.992779         157.717         0.120126        -138.466
61.1                    0.120351        -86.1487         0.992862         157.688          0.99276         157.683         0.120288        -138.502
61.11                   0.120514        -86.1795         0.992844         157.654         0.992741          157.65          0.12045        -138.538
61.12                   0.120677        -86.2102         0.992826         157.621         0.992722         157.616         0.120613        -138.574
61.13                   0.120839         -86.241         0.992808         157.587         0.992702         157.583         0.120775         -138.61
61.14                   0.121002        -86.2717          0.99279         157.554         0.992683         157.549         0.120938        -138.647
61.15                   0.121165        -86.3024         0.992772          157.52         0.992664         157.516           0.1211        -138.683
61.16                   0.121328        -86.3331         0.992754         157.487         0.992644         157.482         0.121263        -138.719
61.17                   0.121491        -86.3638         0.992735         157.453         0.992625         157.449         0.121426        -138.755
61.18                   0.121654        -86.3945         0.992717          157.42         0.992605         157.416         0.121588        -138.791
61.19                   0.121817        -86.4252         0.992698         157.386         0.992586         157.382         0.121751        -138.827
61.2                     0.12198        -86.4559          0.99268         157.353         0.992566         157.349         0.121914        -138.864
61.21                   0.122143        -86.4865         0.992661         157.319         0.992546         157.315         0.122077          -138.9
61.22                   0.122306        -86.5172         0.992642         157.286         0.992527         157.282          0.12224        -138.936
61.23                   0.122469        -86.5478         0.992623         157.252         0.992507         157.248         0.122403        -138.972
61.24                   0.122632        -86.5785         0.992605         157.219         0.992487         157.215         0.122566        -139.008
61.25                   0.122796        -86.6091         0.992586         157.185         0.992467         157.181         0.122729        -139.045
61.26                   0.122959        -86.6398         0.992567         157.152         0.992448         157.148         0.122892        -139.081
61.27                   0.123122        -86.6704         0.992548         157.118         0.992428         157.114         0.123055        -139.117
61.28                   0.123286         -86.701         0.992528         157.085         0.992408         157.081         0.123218        -139.153
61.29                   0.123449        -86.7317         0.992509         157.051         0.992388         157.047         0.123382         -139.19
61.3                    0.123613        -86.7623          0.99249         157.018         0.992368         157.014         0.123545        -139.226
61.31                   0.123776        -86.7929         0.992471         156.984         0.992348          156.98         0.123708        -139.262
61.32                    0.12394        -86.8235         0.992451         156.951         0.992328         156.947         0.123872        -139.298
61.33                   0.124103        -86.8541         0.992432         156.917         0.992307         156.913         0.124035        -139.335
61.34                   0.124267        -86.8847         0.992412         156.884         0.992287          156.88         0.124199        -139.371
61.35                   0.124431        -86.9153         0.992392          156.85         0.992267         156.846         0.124362        -139.407
61.36                   0.124594        -86.9459         0.992373         156.817         0.992247         156.813         0.124526        -139.443
61.37                   0.124758        -86.9764         0.992353         156.783         0.992226         156.779          0.12469         -139.48
61.38                   0.124922         -87.007         0.992333          156.75         0.992206         156.746         0.124853        -139.516
61.39                   0.125086        -87.0376         0.992313         156.716         0.992186         156.712         0.125017        -139.552
61.4                    0.125249        -87.0681         0.992293         156.683         0.992165         156.679         0.125181        -139.589
61.41                   0.125413        -87.0987         0.992273         156.649         0.992145         156.645         0.125345        -139.625
61.42                   0.125577        -87.1293         0.992253         156.616         0.992124         156.612         0.125509        -139.661
61.43                   0.125741        -87.1598         0.992233         156.582         0.992104         156.578         0.125672        -139.698
61.44                   0.125905        -87.1903         0.992212         156.549         0.992083         156.545         0.125836        -139.734
61.45                   0.126069        -87.2209         0.992192         156.515         0.992063         156.511            0.126         -139.77
61.46                   0.126233        -87.2514         0.992172         156.482         0.992042         156.478         0.126164        -139.807
61.47                   0.126397         -87.282         0.992151         156.448         0.992021         156.444         0.126329        -139.843
61.48                   0.126562        -87.3125         0.992131         156.415            0.992         156.411         0.126493        -139.879
61.49                   0.126726         -87.343          0.99211         156.381          0.99198         156.377         0.126657        -139.916
61.5                     0.12689        -87.3735         0.992089         156.348         0.991959         156.344         0.126821        -139.952
61.51                   0.127054        -87.4041         0.992069         156.314         0.991938          156.31         0.126985        -139.988
61.52                   0.127218        -87.4346         0.992048         156.281         0.991917         156.277          0.12715        -140.025
61.53                   0.127383        -87.4651         0.992027         156.247         0.991896         156.243         0.127314        -140.061
61.54                   0.127547        -87.4956         0.992006         156.214         0.991875          156.21         0.127478        -140.097
61.55                   0.127711        -87.5261         0.991985          156.18         0.991854         156.176         0.127643        -140.134
61.56                   0.127876        -87.5566         0.991964         156.147         0.991833         156.143         0.127807         -140.17
61.57                    0.12804        -87.5871         0.991943         156.113         0.991812         156.109         0.127972        -140.207
61.58                   0.128205        -87.6176         0.991922         156.079         0.991791         156.076         0.128136        -140.243
61.59                   0.128369        -87.6481           0.9919         156.046         0.991769         156.042         0.128301        -140.279
61.6                    0.128534        -87.6786         0.991879         156.012         0.991748         156.009         0.128466        -140.316
61.61                   0.128698        -87.7091         0.991858         155.979         0.991727         155.975          0.12863        -140.352
61.62                   0.128863        -87.7395         0.991836         155.945         0.991706         155.942         0.128795        -140.389
61.63                   0.129027          -87.77         0.991814         155.912         0.991684         155.908          0.12896        -140.425
61.64                   0.129192        -87.8005         0.991793         155.878         0.991663         155.875         0.129124        -140.461
61.65                   0.129356         -87.831         0.991771         155.845         0.991641         155.841         0.129289        -140.498
61.66                   0.129521        -87.8615         0.991749         155.811          0.99162         155.808         0.129454        -140.534
61.67                   0.129686        -87.8919         0.991728         155.778         0.991598         155.774         0.129619        -140.571
61.68                    0.12985        -87.9224         0.991706         155.744         0.991577         155.741         0.129784        -140.607
61.69                   0.130015        -87.9529         0.991684          155.71         0.991555         155.707         0.129949        -140.644
61.7                     0.13018        -87.9833         0.991662         155.677         0.991534         155.674         0.130114         -140.68
61.71                   0.130345        -88.0138          0.99164         155.643         0.991512          155.64         0.130279        -140.716
61.72                   0.130509        -88.0443         0.991617          155.61          0.99149         155.606         0.130444        -140.753
61.73                   0.130674        -88.0747         0.991595         155.576         0.991468         155.573         0.130609        -140.789
61.74                   0.130839        -88.1052         0.991573         155.543         0.991447         155.539         0.130774        -140.826
61.75                   0.131004        -88.1356         0.991551         155.509         0.991425         155.506         0.130939        -140.862
61.76                   0.131169        -88.1661         0.991528         155.476         0.991403         155.472         0.131104        -140.899
61.77                   0.131334        -88.1966         0.991506         155.442         0.991381         155.439         0.131269        -140.935
61.78                   0.131499         -88.227         0.991483         155.408         0.991359         155.405         0.131434        -140.972
61.79                   0.131663        -88.2575          0.99146         155.375         0.991337         155.372           0.1316        -141.008
61.8                    0.131828        -88.2879         0.991438         155.341         0.991315         155.338         0.131765        -141.045
61.81                   0.131993        -88.3184         0.991415         155.308         0.991293         155.305          0.13193        -141.081
61.82                   0.132158        -88.3488         0.991392         155.274         0.991271         155.271         0.132096        -141.118
61.83                   0.132323        -88.3793         0.991369         155.241         0.991249         155.237         0.132261        -141.154
61.84                   0.132488        -88.4097         0.991346         155.207         0.991226         155.204         0.132426        -141.191
61.85                   0.132653        -88.4402         0.991323         155.174         0.991204          155.17         0.132592        -141.227
61.86                   0.132818        -88.4706           0.9913          155.14         0.991182         155.137         0.132757        -141.264
61.87                   0.132983        -88.5011         0.991277         155.106          0.99116         155.103         0.132923          -141.3
61.88                   0.133148        -88.5315         0.991254         155.073         0.991137          155.07         0.133088        -141.337
61.89                   0.133314         -88.562         0.991231         155.039         0.991115         155.036         0.133254        -141.373
61.9                    0.133479        -88.5924         0.991207         155.006         0.991092         155.003         0.133419         -141.41
61.91                   0.133644        -88.6229         0.991184         154.972          0.99107         154.969         0.133585        -141.446
61.92                   0.133809        -88.6533          0.99116         154.938         0.991047         154.936          0.13375        -141.483
61.93                   0.133974        -88.6838         0.991137         154.905         0.991025         154.902         0.133916        -141.519
61.94                   0.134139        -88.7142         0.991113         154.871         0.991002         154.868         0.134081        -141.556
61.95                   0.134304        -88.7447          0.99109         154.838          0.99098         154.835         0.134247        -141.592
61.96                   0.134469        -88.7751         0.991066         154.804         0.990957         154.801         0.134413        -141.629
61.97                   0.134635        -88.8056         0.991042          154.77         0.990934         154.768         0.134578        -141.665