! TOUCHSTONE file generated by CST MICROWAVE STUDIO
! Date and time: Wed Feb 21 23:21:44 2024
! Project name: material_desal.cst
! Header version: 2018
! Port assignment regex: !\s*Touchstone port\s*([0-9]+)\s*=\s*(CST MWS port|CST DS port)\s*([0-9]+|Zmin|Zmax)\s*\(\"(.*)\"\)(\s*mode\s*([0-9]+))?.*
! Touchstone port assignment:
! Touchstone port 1 = CST MWS port 1 ("")
! Touchstone port 2 = CST MWS port 2 ("")
# GHz S MA R 376.7
60                       0.34305         169.206         0.639446         110.197         0.639743         110.248          0.34215           169.4
60.01                   0.342766          168.89         0.638155         110.176         0.638469         110.233         0.341929          169.15
60.02                   0.342477         168.576         0.636872         110.157         0.637206          110.22         0.341696         168.901
60.03                   0.342184         168.263         0.635598          110.14         0.635955         110.207         0.341452         168.653
60.04                   0.341888         167.953         0.634334         110.124         0.634716         110.196         0.341196         168.406
60.05                   0.341588         167.644         0.633081         110.109          0.63349         110.185         0.340929         168.159
60.06                   0.341285         167.338         0.631839         110.096         0.632277         110.176         0.340649         167.914
60.07                   0.340981         167.034          0.63061         110.084         0.631079         110.167         0.340359         167.669
60.08                   0.340674         166.732         0.629393         110.073         0.629895         110.159         0.340057         167.424
60.09                   0.340367         166.433         0.628192         110.063         0.628726         110.151         0.339745         167.181
60.1                    0.340059         166.136         0.627005         110.054         0.627573         110.144         0.339422         166.937
60.11                   0.339751         165.842         0.625834         110.046         0.626435         110.138          0.33909         166.694
60.12                   0.339444         165.551         0.624679         110.039         0.625315         110.132         0.338749         166.451
60.13                   0.339139         165.263         0.623543         110.032         0.624211         110.126           0.3384         166.208
60.14                   0.338835         164.978         0.622424         110.026         0.623124          110.12         0.338045         165.966
60.15                   0.338535         164.696         0.621324          110.02         0.622055         110.114         0.337684         165.723
60.16                   0.338239         164.418         0.620244         110.015         0.621004         110.109         0.337319          165.48
60.17                   0.337947         164.143         0.619183          110.01         0.619971         110.102         0.336953         165.237
60.18                   0.337661         163.872         0.618144         110.004         0.618957         110.096         0.336586         164.993
60.19                   0.337381         163.604         0.617125         109.999         0.617961         110.088          0.33622          164.75
60.2                    0.337109         163.341         0.616128         109.993         0.616983         110.081         0.335859         164.506
60.21                   0.336846         163.082         0.615153         109.986         0.616024         110.072         0.335503         164.262
60.22                   0.336593         162.827           0.6142         109.979         0.615084         110.062         0.335156         164.017
60.23                    0.33635         162.577         0.613269          109.97         0.614163         110.051         0.334821         163.773
60.24                    0.33612         162.331         0.612361         109.961         0.613259         110.038         0.334498         163.529
60.25                   0.335903          162.09         0.611474          109.95         0.612374         110.023         0.334193         163.284
60.26                   0.335701         161.854          0.61061         109.937         0.611507         110.007         0.333906          163.04
60.27                   0.335515         161.624         0.609768         109.922         0.610658         109.989         0.333642         162.797
60.28                   0.335348         161.399         0.608948         109.905         0.609825         109.968         0.333402         162.554
60.29                   0.335199         161.179         0.608149         109.886         0.609009         109.945          0.33319         162.313
60.3                    0.335072         160.966          0.60737         109.863         0.608209         109.919         0.333008         162.072
60.31                   0.334967         160.758         0.606611         109.838         0.607424          109.89          0.33286         161.834
60.32                   0.334887         160.557         0.605871         109.809         0.606654         109.857         0.332748         161.597
60.33                   0.334833         160.363         0.605149         109.776         0.605897         109.821         0.332675         161.363
60.34                   0.334808         160.175         0.604443         109.739         0.605152         109.781         0.332644         161.131
60.35                   0.334812         159.994         0.603753         109.698         0.604419         109.737         0.332658         160.902
60.36                   0.334849         159.821         0.603076         109.652         0.603695         109.688          0.33272         160.677
60.37                    0.33492         159.655         0.602412         109.601          0.60298         109.634         0.332833         160.456
60.38                   0.335028         159.498         0.601758         109.544         0.602271         109.575         0.332999         160.239
60.39                   0.335173         159.348         0.601111         109.481         0.601567         109.511         0.333223         160.026
60.4                    0.335359         159.206         0.600471         109.412         0.600867          109.44         0.333507         159.818
60.41                   0.335587         159.074         0.599834         109.336         0.600167         109.363         0.333856         159.615
60.42                   0.335858          158.95         0.599197         109.252         0.599466         109.278         0.334272         159.418
60.43                   0.336174         158.835         0.598557         109.161          0.59876         109.187          0.33476         159.226
60.44                   0.336536         158.729         0.597912         109.061         0.598048         109.088         0.335325         159.041
60.45                   0.336944         158.633         0.597258         108.953         0.597326          108.98          0.33597         158.862
60.46                   0.337397         158.546          0.59659         108.835         0.596591         108.863         0.336701         158.689
60.47                   0.337894         158.469         0.595904         108.707         0.595839         108.737         0.337523         158.523
60.48                   0.338433         158.399         0.595196         108.568         0.595065           108.6         0.338443         158.364
60.49                    0.33901         158.338         0.594462         108.418         0.594267         108.453         0.339466         158.212
60.5                     0.33962         158.282         0.593694         108.256         0.593438         108.295         0.340601         158.067
60.51                   0.340258          158.23         0.592889         108.081         0.592575         108.124         0.341854          157.93
60.52                   0.340919         158.177         0.592039         107.893          0.59167         107.939         0.343234         157.799
60.53                   0.341602         158.119         0.591138          107.69         0.590718         107.741         0.344751         157.676
60.54                   0.342315         158.047         0.590177         107.472         0.589711         107.528         0.346414          157.56
60.55                   0.343084         157.953         0.589149         107.237         0.588642         107.299         0.348236          157.45
60.56                   0.343962         157.826         0.588045         106.985         0.587503         107.053         0.350228         157.348
60.57                   0.345037         157.658         0.586854         106.715         0.586283         106.789         0.352405         157.251
60.58                   0.346435         157.445         0.585565         106.425         0.584973         106.505         0.354781         157.161
60.59                   0.348295         157.195         0.584165         106.113         0.583558         106.199         0.357373         157.076
60.6                    0.350736         156.923         0.582641         105.779         0.582027         105.871         0.360199         156.995
60.61                   0.353822         156.653         0.580978         105.421         0.580364         105.519         0.363281         156.918
60.62                    0.35754         156.406         0.579157         105.036         0.578553          105.14         0.366639         156.845
60.63                    0.36183         156.198         0.577162         104.622         0.576574         104.732           0.3703         156.772
60.64                   0.366614         156.031          0.57497         104.178         0.574408         104.293         0.374291           156.7
60.65                   0.371831         155.902         0.572558         103.701         0.572029          103.82         0.378642         156.626
60.66                   0.377448         155.802           0.5699         103.187         0.569412         103.309         0.383389         156.549
60.67                   0.383463         155.721         0.566965         102.634         0.566524         102.759         0.388568         156.466
60.68                   0.389901         155.649         0.563718         102.038         0.563331         102.164         0.394223         156.375
60.69                   0.396804         155.576         0.560118         101.395         0.559791         101.521           0.4004         156.271
60.7                    0.404225         155.495         0.556121           100.7         0.555856         100.824         0.407153         156.152
60.71                   0.412232         155.397         0.551672         99.9488         0.551471         100.068         0.414541         156.012
60.72                   0.420898         155.274         0.546709         99.1342         0.546572         99.2474         0.422629         155.847
60.73                   0.430304         155.119          0.54116         98.2499         0.541082          98.354          0.43149         155.651
60.74                    0.44054         154.923         0.534941         97.2878         0.534913         97.3797         0.441208         155.417
60.75                   0.451704         154.676         0.527952         96.2389         0.527961         96.3151         0.451873         155.135
60.76                   0.463902         154.369         0.520076         95.0926         0.520101         95.1492         0.463587         154.798
60.77                   0.477251         153.989         0.511173         93.8366         0.511189         93.8692         0.476462         154.392
60.78                   0.491875         153.523          0.50108         92.4567         0.501049         92.4604         0.490621         153.906
60.79                    0.50791         152.955           0.4896          90.936         0.489475         90.9057         0.506198         153.324
60.8                    0.525496         152.267         0.476498         89.2547         0.476221          89.185         0.523335         152.628
60.81                   0.544778         151.438         0.461495         87.3898         0.460993         87.2752         0.542179         151.797
60.82                   0.565898         150.444         0.444259         85.3134         0.443446         85.1488         0.562878         150.807
60.83                    0.58898         149.257         0.424395         82.9927         0.423172         82.7741         0.585569          149.63
60.84                    0.61412         147.846         0.401441         80.3882         0.399702         80.1134         0.610358         148.234
60.85                   0.641351         146.176         0.374858         77.4515         0.372498         77.1218           0.6373         146.584
60.86                   0.670607         144.207         0.344042         74.1222         0.340975         73.7445         0.666354         144.639
60.87                   0.701669         141.898         0.308331         70.3205         0.304515         69.9104          0.69733         142.356
60.88                   0.734085         139.209         0.267056         65.9309         0.262534          65.516         0.729812         139.692
60.89                   0.767095         136.101         0.219618         60.7546         0.214559         60.3788          0.76307         136.606
60.9                    0.799539         132.547          0.16564         54.3437         0.160381         54.0672          0.79597         133.067
60.91                   0.829819         128.537         0.105286         45.1748         0.100331         45.0362         0.826912         129.061
60.92                   0.855938         124.088        0.0411318         21.5183        0.0371672         20.3609          0.85386           124.6
60.93                   0.875691         119.254        0.0416353        -106.998        0.0430192        -109.724          0.87452         119.736
60.94                   0.887018         114.129         0.114135        -131.798         0.114304        -131.804         0.886705         114.563
60.95                    0.88846         108.842         0.189936         -142.27         0.188722        -141.476         0.888815         109.213
60.96                    0.87955         103.546         0.264026        -150.407         0.262458        -149.066         0.880281         103.844
60.97                    0.86096         98.3931         0.333558        -157.602         0.333283         -155.89         0.861738         98.6159
60.98                   0.834321         93.5139         0.396541        -164.153         0.399288        -162.274         0.834859         93.6676
60.99                    0.80181         89.0049         0.451888         -170.13         0.458831        -168.302         0.801911         89.1004
61                      0.765693          84.922         0.499354        -175.555         0.510679        -173.966         0.765264         84.9734
61.01                   0.727976         81.2852         0.539319         179.553         0.554231        -179.218         0.727012         81.3071
61.02                   0.690234         78.0865         0.572541         175.163          0.58966         175.992         0.688791         78.0926
61.03                   0.653579         75.2997         0.599936         171.236         0.617797         171.688         0.651744         75.3016
61.04                   0.618716         72.8882         0.622433         167.728         0.639838         167.866         0.616587         72.8953
61.05                   0.586033         70.8114         0.640887         164.593         0.657035         164.491         0.583704         70.8308
61.06                   0.555692         69.0285         0.656041         161.789         0.670504         161.517         0.553248         69.0653
61.07                   0.527705         67.5009         0.668521         159.275          0.68115         158.893         0.525217         67.5586
61.08                   0.501991         66.1936         0.678839         157.015         0.689665         156.569         0.499516         66.2744
61.09                   0.478415         65.0755         0.687411         154.978         0.696566         154.501            0.476         65.1803
61.1                     0.45682         64.1192         0.694573         153.135         0.702236         152.652         0.454498         64.2482
61.11                   0.437038         63.3009         0.700592         151.462         0.706955         150.989         0.434835         63.4537
61.12                   0.418904         62.6001         0.705683         149.939         0.710934         149.487         0.416837         62.7758
61.13                   0.402261         61.9993         0.710017         148.548         0.714328         148.123         0.400343         62.1964
61.14                   0.386963         61.4832         0.713732         147.272         0.717258         146.879         0.385201         61.7003
61.15                   0.372878         61.0388         0.716939           146.1         0.719813         145.739         0.371275         61.2742
61.16                   0.359883         60.6551         0.719726         145.019         0.722065         144.691         0.358441         60.9068
61.17                   0.347871         60.3224         0.722168         144.019         0.724068         143.723         0.346587         60.5886
61.18                   0.336744         60.0326         0.724322         143.091         0.725868         142.826         0.335615         60.3113
61.19                   0.326414         59.7785         0.726236         142.229         0.727498         141.993         0.325437          60.068
61.2                    0.316805         59.5542          0.72795         141.425         0.728988         141.216         0.315973         59.8525
61.21                   0.307848         59.3544         0.729497         140.673         0.730359         140.489         0.307154         59.6597
61.22                   0.299479         59.1746         0.730903          139.97          0.73163         139.809         0.298918         59.4853
61.23                   0.291645         59.0111         0.732191         139.309         0.732817         139.169         0.291209         59.3254
61.24                   0.284296         58.8604         0.733378         138.687         0.733933         138.566         0.283977         59.1769
61.25                   0.277387         58.7198         0.734481         138.101         0.734987         137.998          0.27718         59.0369
61.26                   0.270881         58.5868         0.735513         137.547         0.735988          137.46         0.270776         58.9033
61.27                    0.26474         58.4594         0.736483         137.024         0.736944          136.95         0.264732         58.7739
61.28                   0.258935         58.3356         0.737402         136.527         0.737861         136.466         0.259016         58.6471
61.29                   0.253435          58.214         0.738278         136.056         0.738744         136.005         0.253599         58.5214
61.3                    0.248216         58.0934         0.739116         135.607         0.739597         135.566         0.248455         58.3957
61.31                   0.243254         57.9725         0.739922          135.18         0.740424         135.148         0.243563         58.2689
61.32                   0.238529         57.8504         0.740701         134.772         0.741228         134.747           0.2389         58.1402
61.33                   0.234021         57.7263         0.741458         134.383         0.742013         134.364         0.234449         58.0089
61.34                   0.229713         57.5997         0.742194         134.011         0.742779         133.997         0.230193         57.8745
61.35                    0.22559         57.4699         0.742915         133.654         0.743529         133.645         0.226116         57.7364
61.36                   0.221638         57.3365         0.743621         133.312         0.744266         133.307         0.222204         57.5943
61.37                   0.217843         57.1992         0.744316         132.983          0.74499         132.981         0.218445          57.448
61.38                   0.214195         57.0577            0.745         132.667         0.745703         132.668         0.214828         57.2972
61.39                   0.210681         56.9117         0.745676         132.363         0.746406         132.366          0.21134         57.1419
61.4                    0.207293         56.7612         0.746345         132.071         0.747099         132.074         0.207974         56.9819
61.41                    0.20402          56.606         0.747009         131.788         0.747785         131.793          0.20472         56.8172
61.42                   0.200856         56.4462         0.747667         131.516         0.748464         131.521          0.20157         56.6479
61.43                   0.197792         56.2816         0.748322         131.253         0.749136         131.258         0.198517          56.474
61.44                   0.194821         56.1125         0.748974         130.998         0.749803         131.004         0.195554         56.2956
61.45                   0.191937         55.9388         0.749624         130.752         0.750464         130.757         0.192674         56.1129
61.46                   0.189133         55.7607         0.750273         130.514         0.751121         130.518         0.189872          55.926
61.47                   0.186404         55.5783          0.75092         130.283         0.751775         130.287         0.187142         55.7352
61.48                   0.183746         55.3918         0.751567         130.059         0.752425         130.062          0.18448         55.5406
61.49                   0.181152         55.2014         0.752214         129.842         0.753074         129.844          0.18188         55.3425
61.5                    0.178618         55.0075         0.752862         129.632          0.75372         129.633         0.179339         55.1413
61.51                   0.176141         54.8102         0.753511         129.427         0.754365         129.427         0.176852         54.9372
61.52                   0.173717         54.6098         0.754162         129.228         0.755009         129.227         0.174416         54.7305
61.53                   0.171341         54.4067         0.754815         129.035         0.755653         129.033         0.172027         54.5217
61.54                    0.16901         54.2013          0.75547         128.848         0.756298         128.844         0.169683         54.3111
61.55                   0.166722         53.9939         0.756129         128.665         0.756945         128.661         0.167379         54.0991
61.56                   0.164472          53.785         0.756792         128.488         0.757594         128.482         0.165113         53.8863
61.57                   0.162259         53.5751         0.757459         128.315         0.758245         128.309         0.162882         53.6731
61.58                   0.160079         53.3646         0.758132         128.147         0.758901          128.14         0.160684           53.46
61.59                    0.15793         53.1542          0.75881         127.984         0.759561         127.976         0.158516         53.2477
61.6                    0.155809         52.9443         0.759496         127.825         0.760228         127.816         0.156377         53.0367
61.61                   0.153714         52.7357         0.760188         127.671         0.760901         127.661         0.154263         52.8277
61.62                   0.151644         52.5291          0.76089         127.521         0.761582          127.51         0.152173         52.6215
61.63                   0.149595         52.3252           0.7616         127.375         0.762272         127.364         0.150105         52.4188
61.64                   0.147566         52.1248         0.762322         127.233         0.762973         127.222         0.148058         52.2205
61.65                   0.145555         51.9289         0.763056         127.095         0.763686         127.083         0.146029         52.0274
61.66                   0.143561         51.7385         0.763803         126.961         0.764412         126.949         0.144017         51.8407
61.67                   0.141582         51.5546         0.764565         126.831         0.765153         126.819          0.14202         51.6614
61.68                   0.139616         51.3784         0.765344         126.704         0.765912         126.692         0.140038         51.4907
61.69                   0.137662         51.2113         0.766141         126.582          0.76669          126.57         0.138069         51.3298
61.7                    0.135718         51.0546         0.766959         126.463         0.767488         126.451         0.136111         51.1803
61.71                   0.133785         50.9099         0.767799         126.348         0.768311         126.336         0.134165         51.0436
61.72                    0.13186         50.7788         0.768664         126.237         0.769159         126.225          0.13223         50.9215
61.73                   0.129943         50.6634         0.769558         126.129         0.770036         126.118         0.130304         50.8158
61.74                   0.128034         50.5656         0.770481         126.025         0.770945         126.014         0.128387         50.7286
61.75                   0.126132         50.4878         0.771439         125.924         0.771888         125.914          0.12648         50.6621
61.76                   0.124237         50.4324         0.772433         125.827          0.77287         125.817         0.124582         50.6187
61.77                   0.122349         50.4021         0.773469         125.734         0.773893         125.724         0.122694         50.6012
61.78                    0.12047            50.4         0.774549         125.643         0.774963         125.634         0.120816         50.6125
61.79                     0.1186         50.4294         0.775678         125.556         0.776083         125.547         0.118951         50.6558
61.8                     0.11674         50.4939         0.776861         125.473         0.777259         125.464           0.1171         50.7345
61.81                   0.114894         50.5974         0.778103         125.392         0.778494         125.384         0.115265         50.8524
61.82                   0.113063         50.7441          0.77941         125.314         0.779794         125.306         0.113448         51.0137
61.83                   0.111251         50.9388         0.780786         125.239         0.781166         125.231         0.111655         51.2228
61.84                   0.109464         51.1863         0.782239         125.166         0.782615         125.159         0.109889         51.4842
61.85                   0.107705         51.4919         0.783774         125.096         0.784148         125.089         0.108157          51.803
61.86                   0.105984         51.8612           0.7854         125.028         0.785771          125.02         0.106464         52.1843
61.87                   0.104306         52.2997         0.787123         124.961         0.787492         124.953          0.10482         52.6333
61.88                   0.102683         52.8135          0.78895         124.895         0.789319         124.888         0.103234         53.1555
61.89                   0.101126          53.408         0.790891         124.831         0.791258         124.823         0.101717         53.7559
61.9                   0.0996481         54.0888         0.792953         124.766         0.793318         124.758         0.100283         54.4392
61.91                  0.0982654         54.8605         0.795144           124.7         0.795508         124.692        0.0989469         55.2097
61.92                  0.0969956         55.7269         0.797472         124.634         0.797834         124.625        0.0977259         56.0702
61.93                  0.0958591         56.6903         0.799946         124.565         0.800305         124.555        0.0966394         57.0225
61.94                  0.0948784         57.7508         0.802572         124.493         0.802927         124.482        0.0957089          58.066
61.95                  0.0940781         58.9059         0.805359         124.416         0.805709         124.405        0.0949579          59.198
61.96                  0.0934845         60.1498          0.80831         124.334         0.808654         124.322        0.0944113         60.4122
61.97                  0.0931255          61.473         0.811431         124.245         0.811768         124.233        0.0940951         61.6992