! TOUCHSTONE file generated by CST MICROWAVE STUDIO
! Date and time: Sat Feb 24 20:43:30 2024
! Project name: material_angular.cst
! Parameters = {Z=5; Y=2}
! Header version: 2018
! Port assignment regex: !\s*Touchstone port\s*([0-9]+)\s*=\s*(CST MWS port|CST DS port)\s*([0-9]+|Zmin|Zmax)\s*\(\"(.*)\"\)(\s*mode\s*([0-9]+))?.*
! Touchstone port assignment:
! Touchstone port 1 = CST MWS port 1 ("")
! Touchstone port 2 = CST MWS port 2 ("")
# GHz S MA R 376.7
60                       0.10037        -107.477          0.99495         162.504          0.99495         162.504          0.10037        -107.515
60.01                    0.10037         -107.71          0.99492         162.246         0.994915         162.246         0.100285        -107.943
60.02                   0.100273        -107.968         0.994896         161.972         0.994885         161.972         0.100064        -108.371
60.03                   0.100062        -108.255         0.994879          161.68         0.994864          161.68        0.0996999        -108.794
60.04                  0.0997144        -108.574         0.994874         161.365         0.994854         161.365        0.0991815        -109.207
60.05                  0.0992008        -108.928         0.994883         161.026         0.994858         161.026        0.0984976         -109.61
60.06                  0.0984836        -109.321         0.994911         160.659         0.994882         160.659        0.0976287        -110.006
60.07                  0.0975141        -109.755         0.994964         160.258         0.994931         160.258        0.0965425        -110.405
60.08                  0.0962278        -110.236         0.995049         159.818         0.995014         159.819        0.0951868        -110.816
60.09                  0.0945389        -110.767         0.995176         159.332         0.995139         159.332        0.0934831        -111.255
60.1                   0.0923314        -111.354         0.995358         158.788         0.995322         158.788        0.0913175        -111.739
60.11                  0.0894455        -112.005          0.99561         158.175         0.995576         158.175        0.0885271        -112.286
60.12                  0.0856559        -112.732         0.995952         157.474         0.995922         157.474        0.0848797        -112.918
60.13                  0.0806367        -113.548         0.996406         156.661         0.996381         156.661        0.0800385        -113.663
60.14                  0.0739006        -114.478         0.996997         155.701         0.996979         155.702        0.0735022        -114.556
60.15                  0.0646901        -115.549         0.997746         154.544         0.997737         154.544        0.0644971        -115.645
60.16                  0.0517731        -116.784         0.998659         153.107         0.998659         153.107        0.0517731        -117.001
60.17                    0.03303        -118.063         0.999675         151.259         0.999683         151.259        0.0331906        -118.708
60.18                 0.00459809        -111.258         0.999996          148.76         0.999996          148.76       0.00480752        -119.508
60.19                  0.0417356         53.2644          1.00005         145.133          1.00007         145.132        0.0413965         54.7238
60.2                    0.124235         48.2853         0.993697         139.273         0.993719         139.272         0.123974         49.0576
60.21                   0.293324         37.4537         0.957913         128.045         0.957928         128.043         0.293337         37.9546
60.22                   0.679924         10.5625         0.733283         100.705         0.733283         100.705         0.679924         10.8466
60.23                   0.998768        -44.4755         0.113069        -136.463         0.113016        -136.481         0.996108        -44.1852
60.24                    0.78159        -79.1535         0.627534        -169.216         0.627505        -169.215         0.780476        -78.7913
60.25                   0.635956        -93.2027         0.772306          176.92         0.772299          176.92         0.635688        -92.8606
60.26                   0.569014        -100.708         0.822328          169.45         0.822328          169.45         0.569014        -100.391
60.27                   0.542372        -105.911         0.840039         164.251         0.840041         164.251         0.542449        -105.609
60.28                    0.54046        -110.312         0.841285         159.847         0.841287         159.847          0.54054        -110.014
60.29                   0.557997        -114.675         0.829799         155.482           0.8298         155.482         0.558045        -114.372
60.3                    0.594957        -119.601         0.803758         150.558         0.803758         150.558         0.594957        -119.282
60.31                    0.65516        -125.824         0.755532         144.345         0.755531         144.345         0.655104        -125.478
60.32                   0.745503        -134.532         0.666585         135.653         0.666584         135.653         0.745397        -134.147
60.33                   0.869281        -147.886         0.494444         122.324         0.494444         122.324         0.869166         -147.45
60.34                   0.986753        -169.181         0.162229         101.069         0.162229         101.069         0.986753         -168.68
60.35                   0.944651         161.497         0.327654        -108.217         0.327656        -108.217         0.944808         162.076
60.36                   0.696611         134.029         0.717313        -135.621         0.717315        -135.621           0.6967         134.728
60.37                   0.434709         114.904         0.900571        -154.629         0.900571        -154.629         0.434709         115.838
60.38                   0.224141         101.221         0.974597         -167.99         0.974595         -167.99         0.224123         102.796
60.39                  0.0189372         80.6862         0.999854         179.642         0.999852         179.642        0.0189305          98.463
60.4                    0.335942        -110.942         0.941883         158.494         0.941883         158.494         0.335942        -112.071
60.41                    0.99091         170.128         0.134526        -100.051         0.134526        -100.051          0.99091          169.77
60.42                   0.538372         119.758         0.843138        -150.308         0.843126        -150.308         0.538231         119.646
60.43                   0.406465         104.231         0.913666        -166.739         0.913666        -166.739         0.406465         102.291
60.44                   0.246187         101.446         0.969222        -168.365         0.969222        -168.365         0.246187         101.825
60.45                   0.192031         97.7591         0.981433         -172.04          0.98143         -172.04         0.192035         98.1603
60.46                   0.153931         95.2064         0.988082        -174.576         0.988082        -174.576         0.153931         95.6415
60.47                   0.125411         93.2835         0.990775        -176.487         0.990644        -176.492         0.125371         93.7531
60.48                    0.10292         91.6436          0.99469        -177.956          0.99469        -177.956          0.10292         92.4453
60.49                  0.0853466         89.8749         0.996405        -179.201         0.996401        -179.201         0.085437         91.5752
60.5                   0.0710808         88.7973         0.997559         179.756         0.997554         179.756        0.0710141          90.607
60.51                  0.0587835         87.8898         0.998358         178.863         0.998353         178.863        0.0587284         89.7714
60.52                  0.0482237         87.0312         0.998917         178.086         0.998912         178.086        0.0481893         89.0899
60.53                  0.0390774         86.2067          0.99931         177.401         0.999306         177.401        0.0390579         88.5472
60.54                  0.0310777         85.3887         0.999585         176.791         0.999581         176.791        0.0310684         88.1419
60.55                  0.0240185         84.5304         0.999774         176.243          0.99977         176.243        0.0240161         87.8955
60.56                  0.0177406         83.5431         0.999899         175.746         0.999896         175.746        0.0177429         87.8751
60.57                  0.0121196         82.2134         0.999978         175.294         0.999975         175.294         0.012125         88.2719
60.58                 0.00705957         79.8066                1         174.879                1         174.879        0.0070667         89.7846
60.59                 0.00250939         70.6659                1         174.497                1         174.497       0.00251515         97.8613
60.6                   0.0018423         -77.576                1         174.143                1         174.143       0.00182618        -113.735
60.61                 0.00560772        -90.4778         0.999998         173.813         0.999998         173.813       0.00559442        -101.743
60.62                 0.00911598        -93.1024          0.99999         173.506         0.999988         173.506       0.00910326        -99.7963
60.63                  0.0123583        -94.3608         0.999952         173.217          0.99995         173.217         0.012346        -99.1427
60.64                  0.0153618         -95.165         0.999907         172.946         0.999905         172.946        0.0153501        -98.8967
60.65                  0.0181522        -95.7579         0.999857         172.691         0.999856         172.691        0.0181412        -98.8255
60.66                  0.0207524        -96.2324         0.999804         172.449         0.999803         172.449        0.0207422         -98.842
60.67                   0.023182         -96.632         0.999748          172.22         0.999747          172.22        0.0231726        -98.9066
60.68                  0.0254581          -96.98          0.99969         172.002         0.999689         172.002        0.0254498         -98.999
60.69                  0.0275959        -97.2903         0.999631         171.794          0.99963         171.794        0.0275885        -99.1076
60.7                   0.0296082        -97.5716         0.999572         171.596         0.999571         171.596        0.0296019        -99.2259
60.71                  0.0315068        -97.8298         0.999512         171.406         0.999511         171.406        0.0315015        -99.3497
60.72                  0.0333017        -98.0692         0.999452         171.224         0.999451         171.224        0.0332975        -99.4762
60.73                   0.035002        -98.2929         0.999392         171.049         0.999391         171.049        0.0349988        -99.6039
60.74                  0.0366156         -98.503         0.999332         170.881         0.999332         170.881        0.0366135        -99.7315
60.75                  0.0381496        -98.7016         0.999273         170.719         0.999273         170.719        0.0381486        -99.8583
60.76                  0.0396105          -98.89         0.999215         170.563         0.999215         170.563        0.0396105        -99.9839
60.77                   0.041004        -99.0694         0.999158         170.412         0.999158         170.412         0.041005        -100.108
60.78                  0.0423351        -99.2407         0.999101         170.266         0.999101         170.266        0.0423372         -100.23
60.79                  0.0436086        -99.4049         0.999045         170.124         0.999045         170.124        0.0436116         -100.35
60.8                   0.0448286        -99.5626          0.99899         169.987          0.99899         169.987        0.0448325        -100.468
60.81                  0.0459988        -99.7145         0.998936         169.853         0.998936         169.853        0.0460038        -100.584
60.82                  0.0471229        -99.8609         0.998882         169.723         0.998883         169.723        0.0471287        -100.699
60.83                  0.0482038        -100.002          0.99883         169.596          0.99883         169.596        0.0482105        -100.811
60.84                  0.0492445        -100.139         0.998778         169.473         0.998779         169.473        0.0492521        -100.921
60.85                  0.0502476        -100.272         0.998728         169.353         0.998728         169.353        0.0502559         -101.03
60.86                  0.0512155        -100.401         0.998678         169.235         0.998678         169.235        0.0512246        -101.137
60.87                  0.0521503        -100.527         0.998629          169.12         0.998629          169.12        0.0521601        -101.242
60.88                  0.0530541        -100.649          0.99858         169.007         0.998581         169.007        0.0530646        -101.345
60.89                  0.0539287        -100.768         0.998533         168.897         0.998534         168.897        0.0539399        -101.447
60.9                   0.0547758        -100.885         0.998486         168.789         0.998487         168.789        0.0547877        -101.548
60.91                  0.0555971        -100.998         0.998441         168.683         0.998441         168.683        0.0556096        -101.647
60.92                   0.056394        -101.109         0.998395         168.578         0.998396         168.578         0.056407        -101.744
60.93                  0.0571677        -101.218         0.998351         168.476         0.998352         168.476        0.0571813        -101.841
60.94                  0.0579197        -101.325         0.998307         168.375         0.998308         168.375        0.0579337        -101.936
60.95                  0.0586509         -101.43         0.998264         168.276         0.998265         168.276        0.0586655         -102.03
60.96                  0.0593626        -101.533         0.998222         168.178         0.998223         168.178        0.0593775        -102.123
60.97                  0.0600556        -101.634          0.99818         168.081         0.998181         168.081         0.060071        -102.215
60.98                  0.0607309        -101.734         0.998139         167.986          0.99814         167.986        0.0607467        -102.306
60.99                  0.0613894        -101.832         0.998099         167.892           0.9981         167.892        0.0614055        -102.396
61                     0.0620319        -101.928         0.998059         167.799          0.99806         167.799        0.0620483        -102.485
61.01                   0.062659        -102.023         0.998019         167.707          0.99802         167.707        0.0626757        -102.574
61.02                  0.0632715        -102.118         0.997981         167.616         0.997982         167.616        0.0632885        -102.662
61.03                    0.06387        -102.211         0.997942         167.526         0.997943         167.526        0.0638872        -102.749
61.04                  0.0644551        -102.302         0.997905         167.437         0.997906         167.437        0.0644725        -102.835
61.05                  0.0650274        -102.393         0.997868         167.349         0.997869         167.349        0.0650449        -102.921
61.06                  0.0655872        -102.484         0.997831         167.261         0.997832         167.261        0.0656049        -103.007
61.07                  0.0661352        -102.573         0.997795         167.174         0.997796         167.174         0.066153        -103.092
61.08                  0.0666716        -102.661         0.997759         167.087          0.99776         167.087        0.0666895        -103.177
61.09                  0.0671969        -102.749         0.997724         167.001         0.997725         167.001        0.0672149        -103.261
61.1                   0.0677115        -102.837         0.997689         166.915          0.99769         166.915        0.0677295        -103.345
61.11                  0.0682155        -102.924         0.997655          166.83         0.997656          166.83        0.0682335        -103.429
61.12                  0.0687093         -103.01         0.997621         166.745         0.997622         166.745        0.0687273        -103.513
61.13                  0.0691931        -103.096         0.997588          166.66         0.997588          166.66         0.069211        -103.596
61.14                   0.069667        -103.182         0.997555         166.575         0.997556         166.575        0.0696849         -103.68
61.15                  0.0701312        -103.268         0.997522         166.491         0.997523         166.491         0.070149        -103.763
61.16                  0.0705858        -103.353          0.99749         166.406         0.997491         166.406        0.0706035        -103.847
61.17                  0.0710307        -103.439         0.997459         166.321          0.99746         166.321        0.0710483        -103.931
61.18                  0.0714661        -103.524         0.997428         166.237         0.997429         166.237        0.0714835        -104.015
61.19                  0.0718917         -103.61         0.997398         166.152         0.997398         166.152        0.0719089        -104.099
61.2                   0.0723075        -103.696         0.997368         166.066         0.997368         166.066        0.0723245        -104.184
61.21                  0.0727131        -103.782         0.997338          165.98         0.997339          165.98        0.0727299        -104.269
61.22                  0.0731083        -103.869          0.99731         165.894          0.99731         165.894        0.0731248        -104.355
61.23                  0.0734925        -103.956         0.997282         165.807         0.997282         165.807        0.0735088        -104.441
61.24                  0.0738653        -104.044         0.997254         165.719         0.997255         165.719        0.0738812        -104.528
61.25                  0.0742259        -104.133         0.997228         165.631         0.997228         165.631        0.0742415        -104.617
61.26                  0.0745734        -104.223         0.997202         165.541         0.997203         165.541        0.0745886        -104.706
61.27                  0.0749066        -104.314         0.997178          165.45         0.997178          165.45        0.0749215        -104.797
61.28                  0.0752241        -104.407         0.997154         165.358         0.997154         165.358        0.0752386        -104.889
61.29                  0.0755241        -104.501         0.997132         165.263         0.997132         165.263        0.0755382        -104.983
61.3                   0.0758046        -104.597         0.997111         165.167         0.997111         165.167        0.0758182        -105.079
61.31                  0.0760626        -104.696         0.997091         165.069         0.997092         165.069        0.0760757        -105.177
61.32                  0.0762947        -104.797         0.997074         164.968         0.997074         164.968        0.0763074        -105.278
61.33                  0.0764966        -104.901         0.997059         164.864         0.997059         164.864        0.0765087        -105.382
61.34                  0.0766626        -105.009         0.997046         164.756         0.997047         164.756        0.0766742        -105.489
61.35                  0.0767856        -105.122         0.997037         164.644         0.997038         164.644        0.0767966        -105.601
61.36                   0.076856        -105.239         0.997032         164.526         0.997032         164.526        0.0768665        -105.718
61.37                  0.0768614        -105.363         0.997032         164.402         0.997032         164.402        0.0768712        -105.842
61.38                  0.0767849        -105.495         0.997039         164.271         0.997039         164.271         0.076794        -105.973
61.39                  0.0766033        -105.636         0.997053          164.13         0.997053          164.13        0.0766117        -106.113
61.4                   0.0762839        -105.789         0.997078         163.977         0.997078         163.977        0.0762915        -106.265
61.41                  0.0757796        -105.958         0.997117         163.809         0.997117         163.809        0.0757864        -106.433
61.42                  0.0750199        -106.147         0.997175          163.62         0.997176          163.62        0.0750257         -106.62
61.43                  0.0738949        -106.365          0.99726         163.403         0.997261         163.403        0.0738997        -106.836
61.44                  0.0722251        -106.623         0.997384         163.146         0.997384         163.146        0.0722287         -107.09
61.45                  0.0696972        -106.942         0.997566         162.829         0.997566         162.829        0.0696992        -107.403
61.46                  0.0657147        -107.359         0.997838         162.415         0.997838         162.415        0.0657147         -107.81
61.47                  0.0589981        -107.953         0.998263         161.826         0.998263         161.826        0.0589949        -108.386
61.48                  0.0462455        -108.924         0.998945         160.867         0.998945         160.867        0.0462362        -109.309
61.49                  0.0157094        -110.979         0.999926          158.85         0.999926          158.85        0.0156817        -110.978
61.5                    0.123728         60.5981         0.992714         150.488         0.992713         150.488         0.123961         60.0043
61.51                   0.390961        -89.0609         0.920407        -179.415         0.920407        -179.415         0.390961        -89.7685
61.52                   0.197965        -101.372         0.980233         168.323         0.980233         168.323         0.197959        -101.968
61.53                   0.166223        -103.935         0.986093         165.774         0.986093         165.774         0.166222        -104.513
61.54                   0.159893        -105.439         0.987134         164.272         0.987134         164.272         0.159893        -106.018
61.55                   0.172575        -107.216         0.984996         162.482         0.984996         162.482         0.172575         -107.82
61.56                   0.285883        -114.525         0.958265          155.12         0.958265          155.12         0.285883        -115.235
61.57                0.000377754         169.359         0.999934         171.255         0.999934         171.255      0.000378119        -7.16636
61.58                  0.0714124        -103.122          0.99743         166.773          0.99743         166.773        0.0714115        -103.342
61.59                  0.0875421        -104.306         0.996161         165.537         0.996161         165.537        0.0875421        -104.619
61.6                   0.0950735        -104.989         0.995513         164.841         0.995514         164.841        0.0950765        -105.312
61.61                    0.10013        -105.512         0.995256         164.302         0.995259         164.303         0.100141        -105.812
61.62                   0.104666        -105.996         0.997814         163.821         0.997797         163.823         0.104694        -106.237
61.63                   0.109946         -106.55         0.995362         163.561         0.995365         163.561         0.110025        -106.664
61.64                   0.118055         -107.35         0.993669         162.926         0.993671         162.926         0.118307        -107.167
61.65                   0.136335        -109.008         0.991273         161.744         0.991275         161.744         0.137374         -107.98
61.66                   0.285887        -117.407         0.958263         152.656         0.958263         152.656         0.285887         -117.28
61.67                  0.0414453           -98.6         0.999099         166.802         0.999098         166.802        0.0425818         -108.35
61.68                  0.0754898        -104.935         0.997147         164.672         0.997147         164.672        0.0754898        -105.721
61.69                  0.0860948        -105.859          0.99628         163.923          0.99628         163.923        0.0860747         -106.31
61.7                   0.0921628        -106.348         0.995736         163.445         0.995736         163.445        0.0921562        -106.773
61.71                  0.0967545        -106.737         0.995301         163.054         0.995302         163.054        0.0967546        -107.161
61.72                   0.100942        -107.106         0.994887         162.686         0.994887         162.686         0.100945        -107.526
61.73                   0.105361        -107.494          0.99443         162.302          0.99443         162.302         0.105365        -107.904
61.74                   0.110664        -107.941         0.993855         161.863         0.993855         161.863         0.110667        -108.333
61.75                   0.117906        -108.509         0.993022         161.309         0.993022         161.309         0.117909        -108.873
61.76                   0.129476        -109.343         0.991581         160.499         0.991581         160.499         0.129477         -109.66
61.77                   0.153007        -110.894         0.988225         158.988         0.988225         158.988         0.153007         -111.13
61.78                   0.235403        -115.949         0.971905         154.018         0.971905         154.018         0.235396        -116.018
61.79                   0.321009         95.9488         0.947076        -173.814         0.947076        -173.814         0.321009         96.4236
61.8                  0.00415005        -93.9506         0.999992         167.047         0.999992         167.047       0.00415001        -111.984
61.81                  0.0439582         -104.69         0.999033         164.567         0.999033         164.567        0.0439582        -106.176
61.82                  0.0596576        -106.028         0.998219         163.453         0.998219         163.453        0.0596575        -107.066
61.83                  0.0682088        -106.833         0.997671         162.726         0.997671         162.726        0.0682086        -107.716
61.84                  0.0736693        -107.451         0.997283         162.147         0.997283         162.147        0.0736691        -108.254
61.85                  0.0774905        -107.996         0.996993         161.627         0.996993         161.627        0.0774904         -108.75
61.86                  0.0803061        -108.521          0.99677         161.118          0.99677         161.118        0.0803061        -109.243
61.87                   0.082415        -109.062         0.996598         160.589         0.996598         160.589         0.082415        -109.759
61.88                  0.0839413        -109.649         0.996471         160.012         0.996471         160.012        0.0839413        -110.328
61.89                  0.0848825        -110.315         0.996391         159.353         0.996391         159.353        0.0848822        -110.979
61.9                   0.0850943        -111.101         0.996374         158.571         0.996374         158.571        0.0850929        -111.756
61.91                  0.0841991        -112.075         0.996452         157.597         0.996452         157.597        0.0841958        -112.727
61.92                  0.0813281        -113.347         0.996696         156.318         0.996696         156.318        0.0813212        -114.009
61.93                  0.0743638        -115.129         0.997254          154.51         0.997254          154.51        0.0743512        -115.838
61.94                  0.0572821        -117.889         0.998425         151.649         0.998425         151.649        0.0572626        -118.797
61.95                 0.00719283         -120.53         0.999991         146.084         0.999991         146.084       0.00718027        -127.983
61.96                   0.240083         37.5332         0.970752         127.682         0.970752         127.682         0.240083         37.8316
61.97                   0.820238        -81.0756         0.572022        -171.108         0.572022        -171.108         0.820238        -81.1407