! TOUCHSTONE file generated by CST MICROWAVE STUDIO
! Date and time: Wed Feb 21 09:08:54 2024
! Project name: material_prueba.cst
! Parameters = {Y=2}
! Header version: 2018
! Port assignment regex: !\s*Touchstone port\s*([0-9]+)\s*=\s*(CST MWS port|CST DS port)\s*([0-9]+|Zmin|Zmax)\s*\(\"(.*)\"\)(\s*mode\s*([0-9]+))?.*
! Touchstone port assignment:
! Touchstone port 1 = CST MWS port 1 ("")
! Touchstone port 2 = CST MWS port 2 ("")
# GHz S MA R 376.7
60                      0.105319        -133.468         0.994439         161.828         0.994228           161.8         0.105431        -82.6497
60.01                   0.105476        -133.506          0.99443         161.795         0.994217         161.767         0.105577        -82.6843
60.02                   0.105633        -133.544         0.994421         161.762         0.994205         161.735         0.105722        -82.7188
60.03                    0.10579        -133.582         0.994411         161.729         0.994194         161.702         0.105868        -82.7533
60.04                   0.105947         -133.62         0.994402         161.695         0.994182         161.669         0.106014        -82.7878
60.05                   0.106104        -133.657         0.994392         161.662          0.99417         161.637          0.10616        -82.8223
60.06                   0.106261        -133.695         0.994382         161.629         0.994158         161.604         0.106307        -82.8567
60.07                   0.106418        -133.733         0.994372         161.596         0.994146         161.571         0.106453        -82.8911
60.08                   0.106576        -133.771         0.994362         161.563         0.994134         161.539           0.1066        -82.9255
60.09                   0.106733        -133.808         0.994352          161.53         0.994122         161.506         0.106746        -82.9598
60.1                     0.10689        -133.846         0.994342         161.497          0.99411         161.473         0.106893        -82.9941
60.11                   0.107047        -133.883         0.994331         161.463         0.994098         161.441          0.10704        -83.0284
60.12                   0.107204        -133.921         0.994321          161.43         0.994085         161.408         0.107187        -83.0626
60.13                   0.107361        -133.958          0.99431         161.397         0.994073         161.375         0.107334        -83.0969
60.14                   0.107518        -133.996         0.994299         161.364          0.99406         161.342         0.107481        -83.1311
60.15                   0.107676        -134.033         0.994289         161.331         0.994047          161.31         0.107628        -83.1652
60.16                   0.107833         -134.07         0.994278         161.298         0.994034         161.277         0.107776        -83.1994
60.17                    0.10799        -134.108         0.994266         161.265         0.994022         161.244         0.107923        -83.2335
60.18                   0.108147        -134.145         0.994255         161.231         0.994009         161.212         0.108071        -83.2676
60.19                   0.108304        -134.182         0.994244         161.198         0.993995         161.179         0.108219        -83.3016
60.2                    0.108462        -134.219         0.994232         161.165         0.993982         161.146         0.108367        -83.3356
60.21                   0.108619        -134.256         0.994221         161.132         0.993969         161.114         0.108515        -83.3696
60.22                   0.108776        -134.293         0.994209         161.099         0.993956         161.081         0.108663        -83.4036
60.23                   0.108933         -134.33         0.994197         161.066         0.993942         161.048         0.108811        -83.4375
60.24                   0.109091        -134.367         0.994185         161.033         0.993929         161.016         0.108959        -83.4715
60.25                   0.109248        -134.404         0.994173             161         0.993915         160.983         0.109108        -83.5054
60.26                   0.109405        -134.441         0.994161         160.966         0.993901          160.95         0.109256        -83.5392
60.27                   0.109563        -134.478         0.994149         160.933         0.993887         160.918         0.109405         -83.573
60.28                    0.10972        -134.515         0.994136           160.9         0.993874         160.885         0.109554        -83.6068
60.29                   0.109877        -134.551         0.994124         160.867          0.99386         160.852         0.109703        -83.6406
60.3                    0.110035        -134.588         0.994111         160.834         0.993845          160.82         0.109852        -83.6744
60.31                   0.110192        -134.625         0.994099         160.801         0.993831         160.787         0.110001        -83.7081
60.32                    0.11035        -134.661         0.994086         160.768         0.993817         160.754          0.11015        -83.7418
60.33                   0.110507        -134.698         0.994073         160.735         0.993803         160.722           0.1103        -83.7755
60.34                   0.110665        -134.735          0.99406         160.702         0.993788         160.689         0.110449        -83.8091
60.35                   0.110822        -134.771         0.994047         160.669         0.993774         160.656         0.110599        -83.8427
60.36                    0.11098        -134.808         0.994033         160.635         0.993759         160.624         0.110749        -83.8763
60.37                   0.111137        -134.844          0.99402         160.602         0.993744         160.591         0.110899        -83.9099
60.38                   0.111295         -134.88         0.994007         160.569          0.99373         160.558         0.111049        -83.9434
60.39                   0.111452        -134.917         0.993993         160.536         0.993715         160.526         0.111199        -83.9769
60.4                     0.11161        -134.953         0.993979         160.503           0.9937         160.493         0.111349        -84.0104
60.41                   0.111767        -134.989         0.993965          160.47         0.993685          160.46         0.111499        -84.0439
60.42                   0.111925        -135.026         0.993952         160.437          0.99367         160.428          0.11165        -84.0773
60.43                   0.112083        -135.062         0.993938         160.404         0.993654         160.395           0.1118        -84.1107
60.44                    0.11224        -135.098         0.993923         160.371         0.993639         160.362         0.111951        -84.1441
60.45                   0.112398        -135.134         0.993909         160.338         0.993624          160.33         0.112102        -84.1774
60.46                   0.112556         -135.17         0.993895         160.305         0.993608         160.297         0.112253        -84.2107
60.47                   0.112714        -135.206          0.99388         160.272         0.993593         160.265         0.112404         -84.244
60.48                   0.112871        -135.242         0.993866         160.238         0.993577         160.232         0.112555        -84.2773
60.49                   0.113029        -135.279         0.993851         160.205         0.993561         160.199         0.112706        -84.3106
60.5                    0.113187        -135.315         0.993836         160.172         0.993546         160.167         0.112858        -84.3438
60.51                   0.113345         -135.35         0.993822         160.139          0.99353         160.134         0.113009         -84.377
60.52                   0.113503        -135.386         0.993807         160.106         0.993514         160.101         0.113161        -84.4101
60.53                   0.113661        -135.422         0.993791         160.073         0.993498         160.069         0.113313        -84.4433
60.54                   0.113819        -135.458         0.993776          160.04         0.993482         160.036         0.113465        -84.4764
60.55                   0.113976        -135.494         0.993761         160.007         0.993466         160.003         0.113617        -84.5095
60.56                   0.114134         -135.53         0.993746         159.974         0.993449         159.971         0.113769        -84.5426
60.57                   0.114293        -135.566          0.99373         159.941         0.993433         159.938         0.113921        -84.5756
60.58                   0.114451        -135.601         0.993715         159.908         0.993416         159.905         0.114073        -84.6086
60.59                   0.114609        -135.637         0.993699         159.875           0.9934         159.873         0.114226        -84.6416
60.6                    0.114767        -135.673         0.993683         159.842         0.993383          159.84         0.114378        -84.6746
60.61                   0.114925        -135.709         0.993667         159.809         0.993367         159.807         0.114531        -84.7075
60.62                   0.115083        -135.744         0.993651         159.776          0.99335         159.775         0.114684        -84.7404
60.63                   0.115241         -135.78         0.993635         159.743         0.993333         159.742         0.114837        -84.7733
60.64                     0.1154        -135.815         0.993619          159.71         0.993316         159.709          0.11499        -84.8062
60.65                   0.115558        -135.851         0.993603         159.677         0.993299         159.677         0.115143        -84.8391
60.66                   0.115716        -135.886         0.993586         159.643         0.993282         159.644         0.115297        -84.8719
60.67                   0.115875        -135.922          0.99357          159.61         0.993265         159.611          0.11545        -84.9047
60.68                   0.116033        -135.957         0.993553         159.577         0.993248         159.579         0.115604        -84.9374
60.69                   0.116191        -135.993         0.993536         159.544          0.99323         159.546         0.115757        -84.9702
60.7                     0.11635        -136.028          0.99352         159.511         0.993213         159.513         0.115911        -85.0029
60.71                   0.116508        -136.064         0.993503         159.478         0.993196         159.481         0.116065        -85.0356
60.72                   0.116667        -136.099         0.993486         159.445         0.993178         159.448         0.116219        -85.0683
60.73                   0.116825        -136.135         0.993469         159.412          0.99316         159.415         0.116373        -85.1009
60.74                   0.116984         -136.17         0.993452         159.379         0.993143         159.383         0.116528        -85.1335
60.75                   0.117143        -136.205         0.993434         159.346         0.993125          159.35         0.116682        -85.1661
60.76                   0.117301         -136.24         0.993417         159.313         0.993107         159.317         0.116837        -85.1987
60.77                    0.11746        -136.276           0.9934          159.28         0.993089         159.285         0.116991        -85.2313
60.78                   0.117619        -136.311         0.993382         159.247         0.993071         159.252         0.117146        -85.2638
60.79                   0.117778        -136.346         0.993364         159.214         0.993053         159.219         0.117301        -85.2963
60.8                    0.117937        -136.381         0.993347         159.181         0.993035         159.187         0.117456        -85.3288
60.81                   0.118095        -136.417         0.993329         159.148         0.993017         159.154         0.117611        -85.3613
60.82                   0.118254        -136.452         0.993311         159.115         0.992999         159.122         0.117767        -85.3937
60.83                   0.118413        -136.487         0.993293         159.082          0.99298         159.089         0.117922        -85.4261
60.84                   0.118572        -136.522         0.993275         159.049         0.992962         159.056         0.118078        -85.4585
60.85                   0.118731        -136.557         0.993257         159.016         0.992943         159.024         0.118233        -85.4909
60.86                    0.11889        -136.592         0.993238         158.983         0.992925         158.991         0.118389        -85.5232
60.87                    0.11905        -136.627          0.99322          158.95         0.992906         158.958         0.118545        -85.5555
60.88                   0.119209        -136.662         0.993201         158.917         0.992887         158.926         0.118701        -85.5878
60.89                   0.119368        -136.697         0.993183         158.884         0.992869         158.893         0.118857        -85.6201
60.9                    0.119527        -136.732         0.993164         158.851          0.99285          158.86         0.119014        -85.6523
60.91                   0.119687        -136.767         0.993145         158.818         0.992831         158.828          0.11917        -85.6846
60.92                   0.119846        -136.802         0.993127         158.785         0.992812         158.795         0.119327        -85.7168
60.93                   0.120006        -136.837         0.993108         158.752         0.992793         158.762         0.119483         -85.749
60.94                   0.120165        -136.872         0.993089         158.719         0.992774          158.73          0.11964        -85.7811
60.95                   0.120325        -136.907         0.993069         158.686         0.992754         158.697         0.119797        -85.8133
60.96                   0.120484        -136.942          0.99305         158.653         0.992735         158.664         0.119954        -85.8454
60.97                   0.120644        -136.977         0.993031          158.62         0.992716         158.632         0.120111        -85.8775
60.98                   0.120803        -137.012         0.993012         158.587         0.992696         158.599         0.120269        -85.9095
60.99                   0.120963        -137.047         0.992992         158.554         0.992677         158.566         0.120426        -85.9416
61                      0.121123        -137.082         0.992973         158.521         0.992657         158.534         0.120584        -85.9736
61.01                   0.121283        -137.116         0.992953         158.488         0.992638         158.501         0.120741        -86.0056
61.02                   0.121443        -137.151         0.992933         158.455         0.992618         158.468         0.120899        -86.0376
61.03                   0.121603        -137.186         0.992914         158.422         0.992598         158.435         0.121057        -86.0696
61.04                   0.121763        -137.221         0.992894         158.389         0.992578         158.403         0.121215        -86.1015
61.05                   0.121923        -137.256         0.992874         158.356         0.992558          158.37         0.121374        -86.1334
61.06                   0.122083         -137.29         0.992854         158.323         0.992538         158.337         0.121532        -86.1653
61.07                   0.122243        -137.325         0.992833          158.29         0.992518         158.305          0.12169        -86.1972
61.08                   0.122403         -137.36         0.992813         158.257         0.992498         158.272         0.121849         -86.229
61.09                   0.122564        -137.395         0.992793         158.224         0.992478         158.239         0.122008        -86.2609
61.1                    0.122724        -137.429         0.992773         158.191         0.992458         158.207         0.122167        -86.2927
61.11                   0.122884        -137.464         0.992752         158.158         0.992438         158.174         0.122326        -86.3245
61.12                   0.123045        -137.499         0.992731         158.125         0.992417         158.141         0.122485        -86.3562
61.13                   0.123205        -137.533         0.992711         158.092         0.992397         158.109         0.122644         -86.388
61.14                   0.123366        -137.568          0.99269         158.059         0.992376         158.076         0.122803        -86.4197
61.15                   0.123526        -137.603         0.992669         158.026         0.992356         158.043         0.122963        -86.4514
61.16                   0.123687        -137.637         0.992648         157.993         0.992335         158.011         0.123122        -86.4831
61.17                   0.123848        -137.672         0.992627          157.96         0.992315         157.978         0.123282        -86.5148
61.18                   0.124009        -137.706         0.992606         157.927         0.992294         157.945         0.123442        -86.5464
61.19                    0.12417        -137.741         0.992585         157.894         0.992273         157.913         0.123602         -86.578
61.2                    0.124331        -137.776         0.992564         157.861         0.992252          157.88         0.123762        -86.6096
61.21                   0.124492         -137.81         0.992543         157.828         0.992231         157.847         0.123923        -86.6412
61.22                   0.124653        -137.845         0.992521         157.795          0.99221         157.814         0.124083        -86.6728
61.23                   0.124814        -137.879           0.9925         157.762         0.992189         157.782         0.124244        -86.7043
61.24                   0.124975        -137.914         0.992478         157.729         0.992168         157.749         0.124404        -86.7359
61.25                   0.125136        -137.948         0.992457         157.696         0.992147         157.716         0.124565        -86.7674
61.26                   0.125298        -137.983         0.992435         157.663         0.992126         157.684         0.124726        -86.7988
61.27                   0.125459        -138.018         0.992413          157.63         0.992105         157.651         0.124887        -86.8303
61.28                   0.125621        -138.052         0.992392         157.597         0.992083         157.618         0.125049        -86.8617
61.29                   0.125782        -138.087          0.99237         157.564         0.992062         157.585          0.12521        -86.8932
61.3                    0.125944        -138.121         0.992348         157.531          0.99204         157.553         0.125371        -86.9246
61.31                   0.126106        -138.156         0.992326         157.498         0.992019          157.52         0.125533         -86.956
61.32                   0.126267         -138.19         0.992303         157.465         0.991997         157.487         0.125695        -86.9873
61.33                   0.126429        -138.225         0.992281         157.432         0.991976         157.455         0.125857        -87.0187
61.34                   0.126591        -138.259         0.992259         157.399         0.991954         157.422         0.126019          -87.05
61.35                   0.126753        -138.294         0.992237         157.366         0.991932         157.389         0.126181        -87.0813
61.36                   0.126915        -138.328         0.992214         157.333          0.99191         157.356         0.126343        -87.1126
61.37                   0.127077        -138.362         0.992192           157.3         0.991888         157.324         0.126506        -87.1439
61.38                    0.12724        -138.397         0.992169         157.267         0.991867         157.291         0.126669        -87.1751
61.39                   0.127402        -138.431         0.992146         157.234         0.991845         157.258         0.126831        -87.2064
61.4                    0.127564        -138.466         0.992124         157.201         0.991822         157.225         0.126994        -87.2376
61.41                   0.127727          -138.5         0.992101         157.168           0.9918         157.193         0.127157        -87.2688
61.42                   0.127889        -138.535         0.992078         157.135         0.991778          157.16          0.12732           -87.3
61.43                   0.128052        -138.569         0.992055         157.102         0.991756         157.127         0.127484        -87.3311
61.44                   0.128214        -138.604         0.992032         157.069         0.991734         157.095         0.127647        -87.3623
61.45                   0.128377        -138.638         0.992009         157.036         0.991711         157.062         0.127811        -87.3934
61.46                    0.12854        -138.672         0.991986         157.003         0.991689         157.029         0.127974        -87.4245
61.47                   0.128703        -138.707         0.991963          156.97         0.991667         156.996         0.128138        -87.4556
61.48                   0.128866        -138.741         0.991939         156.937         0.991644         156.963         0.128302        -87.4866
61.49                   0.129029        -138.776         0.991916         156.904         0.991622         156.931         0.128466        -87.5177
61.5                    0.129192         -138.81         0.991892         156.871         0.991599         156.898         0.128631        -87.5487
61.51                   0.129356        -138.845         0.991869         156.838         0.991576         156.865         0.128795        -87.5798
61.52                   0.129519        -138.879         0.991845         156.805         0.991554         156.832          0.12896        -87.6108
61.53                   0.129682        -138.913         0.991822         156.772         0.991531           156.8         0.129124        -87.6417
61.54                   0.129846        -138.948         0.991798         156.739         0.991508         156.767         0.129289        -87.6727
61.55                    0.13001        -138.982         0.991774         156.706         0.991485         156.734         0.129454        -87.7037
61.56                   0.130173        -139.017          0.99175         156.673         0.991462         156.701          0.12962        -87.7346
61.57                   0.130337        -139.051         0.991727          156.64         0.991439         156.669         0.129785        -87.7655
61.58                   0.130501        -139.085         0.991703         156.607         0.991416         156.636          0.12995        -87.7964
61.59                   0.130665         -139.12         0.991678         156.574         0.991393         156.603         0.130116        -87.8273
61.6                    0.130829        -139.154         0.991654         156.541          0.99137          156.57         0.130282        -87.8582
61.61                   0.130993        -139.189          0.99163         156.508         0.991347         156.537         0.130447         -87.889
61.62                   0.131158        -139.223         0.991606         156.475         0.991324         156.505         0.130614        -87.9199
61.63                   0.131322        -139.257         0.991582         156.442         0.991301         156.472          0.13078        -87.9507
61.64                   0.131486        -139.292         0.991557         156.409         0.991277         156.439         0.130946        -87.9815
61.65                   0.131651        -139.326         0.991533         156.376         0.991254         156.406         0.131113        -88.0123
61.66                   0.131816        -139.361         0.991508         156.343         0.991231         156.373         0.131279        -88.0431
61.67                    0.13198        -139.395         0.991484          156.31         0.991207         156.341         0.131446        -88.0738
61.68                   0.132145        -139.429         0.991459         156.277         0.991184         156.308         0.131613        -88.1046
61.69                    0.13231        -139.464         0.991435         156.244          0.99116         156.275          0.13178        -88.1353
61.7                    0.132475        -139.498          0.99141         156.211         0.991136         156.242         0.131947         -88.166
61.71                    0.13264        -139.533         0.991385         156.178         0.991113         156.209         0.132115        -88.1967
61.72                   0.132806        -139.567          0.99136         156.145         0.991089         156.176         0.132282        -88.2274
61.73                   0.132971        -139.601         0.991335         156.112         0.991065         156.144          0.13245        -88.2581
61.74                   0.133137        -139.636          0.99131         156.079         0.991042         156.111         0.132618        -88.2887
61.75                   0.133302         -139.67         0.991285         156.046         0.991018         156.078         0.132786        -88.3194
61.76                   0.133468        -139.705          0.99126         156.013         0.990994         156.045         0.132954          -88.35
61.77                   0.133634        -139.739         0.991235          155.98          0.99097         156.012         0.133122        -88.3806
61.78                     0.1338        -139.774          0.99121         155.947         0.990946         155.979          0.13329        -88.4112
61.79                   0.133966        -139.808         0.991184         155.914         0.990922         155.946         0.133459        -88.4418
61.8                    0.134132        -139.842         0.991159         155.881         0.990898         155.914         0.133628        -88.4724
61.81                   0.134298        -139.877         0.991134         155.848         0.990874         155.881         0.133797         -88.503
61.82                   0.134464        -139.911         0.991108         155.815          0.99085         155.848         0.133966        -88.5335
61.83                   0.134631        -139.946         0.991083         155.782         0.990825         155.815         0.134135        -88.5641
61.84                   0.134797         -139.98         0.991057         155.749         0.990801         155.782         0.134304        -88.5946
61.85                   0.134964        -140.015         0.991032         155.716         0.990777         155.749         0.134474        -88.6251
61.86                   0.135131        -140.049         0.991006         155.683         0.990753         155.716         0.134644        -88.6556
61.87                   0.135298        -140.084          0.99098          155.65         0.990728         155.683         0.134814        -88.6861
61.88                   0.135465        -140.118         0.990954         155.617         0.990704          155.65         0.134984        -88.7166
61.89                   0.135632        -140.153         0.990928         155.584         0.990679         155.618         0.135154         -88.747
61.9                    0.135799        -140.187         0.990903         155.551         0.990655         155.585         0.135324        -88.7775
61.91                   0.135967        -140.222         0.990877         155.517          0.99063         155.552         0.135495        -88.8079
61.92                   0.136134        -140.256         0.990851         155.484         0.990606         155.519         0.135665        -88.8384
61.93                   0.136302        -140.291         0.990825         155.451         0.990581         155.486         0.135836        -88.8688
61.94                    0.13647        -140.325         0.990798         155.418         0.990557         155.453         0.136007        -88.8992
61.95                   0.136638         -140.36         0.990772         155.385         0.990532          155.42         0.136178        -88.9296
61.96                   0.136806        -140.394         0.990746         155.352         0.990507         155.387          0.13635          -88.96
61.97                   0.136974        -140.429          0.99072         155.319         0.990482         155.354         0.136521        -88.9904