! TOUCHSTONE file generated by CST MICROWAVE STUDIO
! Date and time: Sat Feb 17 19:24:18 2024
! Project name: metal_rotado.cst
! Parameters = {PX=1; angX=2; angY=2}
! Header version: 2018
! Port assignment regex: !\s*Touchstone port\s*([0-9]+)\s*=\s*(CST MWS port|CST DS port)\s*([0-9]+|Zmin|Zmax)\s*\(\"(.*)\"\)(\s*mode\s*([0-9]+))?.*
! Touchstone port assignment:
! Touchstone port 1 = CST MWS port 1 ("")
! Touchstone port 2 = CST MWS port 2 ("")
# GHz S MA R 376.7
60                             1        -168.071                0               0                0               0                1         163.851
60.01                          1        -168.169      1.70523e-65         179.993      1.70523e-65         179.993                1         163.752
60.02                          1        -168.288      1.70523e-65         179.993      1.70523e-65         179.993                1         163.647
60.03                          1        -168.439      1.70523e-65         179.992      1.70523e-65         179.992                1         163.535
60.04                          1         -168.64      1.70523e-65         179.992      1.70523e-65         179.992                1         163.416
60.05                          1        -168.929      1.60493e-65         179.991      1.60493e-65         179.991                1          163.29
60.06                          1        -169.393      1.60493e-65          179.99      1.60493e-65          179.99                1         163.156
60.07                          1        -170.291      1.60493e-65         179.989      1.60493e-65         179.989                1         163.015
60.08                          1        -172.893      1.60495e-65         179.984      1.60495e-65         179.984                1         162.866
60.09                          1         65.3292                0               0                0             180                1         162.708
60.1                    0.999951         -162.26                0               0                0               0         0.999977         162.541
60.11                   0.999984        -165.049      1.50457e-65         179.996      1.50457e-65         179.996         0.999943         162.366
60.12                   0.999994        -165.983      1.50458e-65         179.994      1.50458e-65         179.994         0.999883         162.182
60.13                   0.999998         -166.46      1.50458e-65         179.993      1.50458e-65         179.993         0.999753         161.993
60.14                          1        -166.757      1.40428e-65         179.992      1.40428e-65         179.992         0.999309         161.812
60.15                          1        -166.963      1.40427e-65         179.992      1.40427e-65         179.992          0.99501         161.607
60.16                          1        -167.118      1.40427e-65         179.991      1.40427e-65         179.991         0.999387         161.092
60.17                          1        -167.242                0               0                0               0                1         160.898
60.18                   0.999999        -167.344      1.40427e-65          179.99      1.40427e-65          179.99                1         160.634
60.19                   0.999999        -167.432      1.40426e-65         179.989      1.40426e-65         179.989                1         160.335
60.2                    0.999998         -167.51      1.40426e-65         179.989      1.40426e-65         179.989                1         160.005
60.21                   0.999997        -167.579      1.40426e-65         179.988      1.40426e-65         179.988                1         159.645
60.22                   0.999996        -167.643      1.40425e-65         179.987      1.40425e-65         179.987                1         159.251
60.23                   0.999995        -167.703      1.40425e-65         179.987      1.40425e-65         179.987                1          158.82
60.24                   0.999994        -167.759      1.40424e-65         179.986      1.40424e-65         179.986                1         158.347
60.25                   0.999994        -167.812      1.40423e-65         179.985      1.40423e-65         179.985                1         157.825
60.26                   0.999993        -167.864      1.40422e-65         179.984      1.40422e-65         179.984                1         157.247
60.27                   0.999992        -167.914      1.40422e-65         179.983      1.40422e-65         179.983                1         156.603
60.28                   0.999991        -167.962       1.4042e-65         179.982       1.4042e-65         179.982                1         155.883
60.29                    0.99999         -168.01      1.40419e-65         179.981      1.40419e-65         179.981                1         155.072
60.3                     0.99999        -168.057      1.40418e-65         179.979      1.40418e-65         179.979         0.999995          154.15
60.31                   0.999989        -168.103      1.30386e-65         179.978      1.30386e-65         179.978         0.999988         153.095
60.32                   0.999988        -168.149      1.30384e-65         179.976      1.30384e-65         179.976         0.999981         151.876
60.33                   0.999987        -168.195      1.30382e-65         179.974      1.30382e-65         179.974         0.999974          150.45
60.34                   0.999987        -168.241      1.30379e-65         179.971      1.30379e-65         179.971         0.999967         148.762
60.35                   0.999986        -168.287      1.30375e-65         179.969      1.30375e-65         179.969         0.999958         146.733
60.36                   0.999986        -168.333       1.3037e-65         179.965       1.3037e-65         179.965         0.999949         144.248
60.37                   0.999985         -168.38      1.30363e-65         179.961      1.30363e-65         179.961          0.99994         141.139
60.38                   0.999985        -168.427      1.30354e-65         179.956      1.30354e-65         179.956         0.999929         137.143
60.39                   0.999985        -168.475       1.3034e-65         179.951       1.3034e-65         179.951         0.999917         131.833
60.4                    0.999984        -168.523      1.30319e-65         179.943      1.30319e-65         179.943         0.999904         124.472
60.41                   0.999984        -168.571      1.30286e-65         179.935      1.30286e-65         179.935         0.999892         113.704
60.42                   0.999984        -168.621      1.30227e-65         179.928      1.30227e-65         179.928         0.999891         96.8688
60.43                   0.999983        -168.671      1.30128e-65         179.933      1.30128e-65         179.933         0.999931         68.7263
60.44                   0.999983        -168.722      1.30011e-65         179.984      1.30011e-65         179.984                1         21.8467
60.45                   0.999983        -168.774                0               0                0             180                1        -38.8377
60.46                   0.999983        -168.827      1.30195e-65        -179.892      1.30195e-65        -179.892                1        -87.8129
60.47                   0.999983        -168.881      1.30298e-65        -179.902      1.30298e-65        -179.902                1        -117.541
60.48                   0.999983        -168.937      1.30349e-65        -179.919      1.30349e-65        -179.919                1        -135.234
60.49                   0.999983        -168.993      1.30375e-65        -179.933      1.30375e-65        -179.933                1         -146.47
60.5                    0.999983        -169.051      1.30389e-65        -179.943      1.30389e-65        -179.943                1        -154.103
60.51                   0.999983         -169.11      1.30396e-65        -179.951      1.30396e-65        -179.951                1        -159.581
60.52                   0.999983        -169.171      1.30401e-65        -179.957      1.30401e-65        -179.957                1        -163.689
60.53                   0.999984        -169.233      1.30404e-65        -179.962      1.30404e-65        -179.962                1        -166.875
60.54                   0.999984        -169.297      1.30406e-65        -179.966      1.30406e-65        -179.966                1        -169.415
60.55                   0.999984        -169.362      1.30407e-65         -179.97      1.30407e-65         -179.97                1        -171.486
60.56                   0.999984         -169.43      1.30408e-65        -179.973      1.30408e-65        -179.973                1        -173.205
60.57                   0.999985        -169.499      1.30409e-65        -179.975      1.30409e-65        -179.975                1        -174.656
60.58                   0.999985         -169.57      1.20378e-65        -179.977      1.20378e-65        -179.977                1        -175.896
60.59                   0.999986        -169.644      1.20378e-65        -179.979      1.20378e-65        -179.979                1        -176.967
60.6                    0.999986         -169.72      1.20378e-65         -179.98      1.20378e-65         -179.98                1        -177.902
60.61                   0.999987        -169.798      1.20378e-65        -179.982      1.20378e-65        -179.982                1        -178.726
60.62                   0.999987        -169.879      1.20378e-65        -179.983      1.20378e-65        -179.983                1        -179.456
60.63                   0.999988        -169.962      1.20378e-65        -179.984      1.20378e-65        -179.984                1         179.891
60.64                   0.999988        -170.048      1.20378e-65        -179.985      1.20378e-65        -179.985                1         179.305
60.65                   0.999989        -170.138      1.20378e-65        -179.986      1.20378e-65        -179.986                1         178.775
60.66                    0.99999         -170.23      1.20378e-65        -179.987      1.20378e-65        -179.987                1         178.293
60.67                    0.99999        -170.326      1.20378e-65        -179.988      1.20378e-65        -179.988                1         177.854
60.68                   0.999991        -170.425      1.20378e-65        -179.989      1.20378e-65        -179.989                1         177.452
60.69                   0.999992        -170.529      1.20378e-65         -179.99      1.20378e-65         -179.99                1         177.082
60.7                    0.999993        -170.636                0               0                0               0                1         176.741
60.71                   0.999993        -170.747      1.20378e-65        -179.991      1.20378e-65        -179.991                1         176.426
60.72                   0.999994        -170.864      1.20378e-65        -179.992      1.20378e-65        -179.992                1         176.133
60.73                   0.999995        -170.985      1.20378e-65        -179.992      1.20378e-65        -179.992         0.999999          175.86
60.74                   0.999996        -171.111      1.20378e-65        -179.993      1.20378e-65        -179.993         0.999998         175.605
60.75                   0.999997        -171.243      1.20378e-65        -179.994      1.20378e-65        -179.994         0.999997         175.367
60.76                   0.999997        -171.381      1.20378e-65        -179.994      1.20378e-65        -179.994         0.999995         175.144
60.77                   0.999998        -171.525      1.20378e-65        -179.995      1.20378e-65        -179.995         0.999994         174.934
60.78                   0.999999        -171.676      1.20378e-65        -179.995      1.20378e-65        -179.995         0.999993         174.736
60.79                          1        -171.835      1.20379e-65        -179.996      1.20379e-65        -179.996         0.999992          174.55
60.8                           1        -172.002      1.20379e-65        -179.996      1.20379e-65        -179.996         0.999991         174.374
60.81                          1        -172.177      1.20379e-65        -179.997      1.20379e-65        -179.997          0.99999         174.207
60.82                          1        -172.362      1.20379e-65        -179.997      1.20379e-65        -179.997          0.99999         174.049
60.83                          1        -172.557      1.20379e-65        -179.998      1.20379e-65        -179.998         0.999989         173.899
60.84                          1        -172.763      1.20379e-65        -179.998      1.20379e-65        -179.998         0.999988         173.757
60.85                          1        -172.981      1.20379e-65        -179.999      1.20379e-65        -179.999         0.999987         173.621
60.86                          1        -173.212      1.20379e-65            -180      1.20379e-65            -180         0.999987         173.492
60.87                          1        -173.458      1.20379e-65             180      1.20379e-65             180         0.999986         173.368
60.88                          1        -173.719      1.10347e-65         179.999      1.10347e-65         179.999         0.999985          173.25
60.89                          1        -173.998      1.10347e-65         179.999      1.10347e-65         179.999         0.999984         173.138
60.9                           1        -174.296      1.10347e-65         179.998      1.10347e-65         179.998         0.999984          173.03
60.91                          1        -174.615      1.10347e-65         179.997      1.10347e-65         179.997         0.999983         172.926
60.92                          1        -174.958      1.10347e-65         179.997      1.10347e-65         179.997         0.999982         172.827
60.93                          1        -175.327      1.10348e-65         179.996      1.10348e-65         179.996         0.999982         172.731
60.94                          1        -175.726      1.10348e-65         179.995      1.10348e-65         179.995         0.999981          172.64
60.95                          1        -176.158      1.10348e-65         179.994      1.10348e-65         179.994          0.99998         172.551
60.96                          1        -176.628      1.10348e-65         179.993      1.10348e-65         179.993         0.999979         172.467
60.97                          1        -177.141      1.10348e-65         179.992      1.10348e-65         179.992         0.999978         172.385
60.98                   0.999998        -177.704      1.10348e-65         179.991      1.10348e-65         179.991         0.999977         172.306
60.99                   0.999995        -178.322      1.10348e-65          179.99      1.10348e-65          179.99         0.999976          172.23
61                      0.999992        -179.007      1.10348e-65         179.989      1.10348e-65         179.989         0.999974         172.156
61.01                   0.999987        -179.768      1.10348e-65         179.988      1.10348e-65         179.988         0.999972         172.085
61.02                   0.999982         179.381      1.10348e-65         179.986      1.10348e-65         179.986          0.99997         172.017
61.03                   0.999977         178.423      1.10348e-65         179.985      1.10348e-65         179.985         0.999967          171.95
61.04                    0.99997         177.336      1.10348e-65         179.983      1.10348e-65         179.983         0.999963         171.886
61.05                   0.999962         176.093      7.84129e-78     1.27898e-10      7.84129e-78     1.27898e-10         0.999957         171.824
61.06                   0.999954         174.657      1.10347e-65         179.979      1.10347e-65         179.979         0.999948         171.764
61.07                   0.999945          172.98      1.10346e-65         179.976      1.10346e-65         179.976         0.999932         171.706
61.08                   0.999935         170.999      1.10346e-65         179.973      1.10346e-65         179.973           0.9999          171.65
61.09                   0.999927         168.621      1.10344e-65         179.969      1.10344e-65         179.969         0.999817         171.596
61.1                    0.999922         165.719      1.00311e-65         179.964      1.00311e-65         179.964         0.999647         171.533
61.11                   0.999925         162.101      1.00308e-65         179.959      1.00308e-65         179.959         0.999881          171.47
61.12                   0.999945         157.478      1.00304e-65         179.952      1.00304e-65         179.952         0.999983         171.424
61.13                          1         151.386                0               0                0               0                1         171.377
61.14                          1         143.052      1.00284e-65         179.932      1.00284e-65         179.932                1          171.33
61.15                          1         131.123      1.00262e-65         179.918      1.00262e-65         179.918                1         171.284
61.16                          1         113.173       1.0022e-65         179.903       1.0022e-65         179.903                1         171.239
61.17                          1         85.1312      9.01293e-66         179.896      9.01293e-66         179.896                1         171.195
61.18                          1         42.9037      9.00366e-66         179.924      9.00366e-66         179.924                1         171.152
61.19                          1        -8.31822      8.99998e-66         179.999      8.99998e-66         179.999         0.999999         171.109
61.2                           1        -52.0266                0               0                0             180         0.999998         171.068
61.21                   0.996872        -81.4408      9.01202e-66        -179.925      9.01202e-66        -179.925         0.999998         171.028
61.22                   0.993742        -100.287      9.01667e-66        -179.925      9.01667e-66        -179.925         0.999997         170.988
61.23                   0.991001         -112.83      9.01963e-66        -179.931      9.01963e-66        -179.931         0.999997          170.95
61.24                   0.989394        -121.646      9.02156e-66        -179.938      9.02156e-66        -179.938         0.999996         170.912
61.25                   0.989482        -128.123      9.02286e-66        -179.944      9.02286e-66        -179.944         0.999996         170.875
61.26                   0.990824        -133.018      9.02379e-66        -179.949      9.02379e-66        -179.949         0.999996         170.839
61.27                   0.992531        -136.804      9.02447e-66        -179.953      9.02447e-66        -179.953         0.999996         170.803
61.28                   0.994065        -139.806      9.02498e-66        -179.956      9.02498e-66        -179.956         0.999996         170.769
61.29                   0.995279        -142.242      9.02537e-66        -179.959      9.02537e-66        -179.959         0.999995         170.735
61.3                    0.996198        -144.259      9.02568e-66        -179.962      9.02568e-66        -179.962         0.999995         170.701
61.31                   0.996889        -145.957      9.02593e-66        -179.964      9.02593e-66        -179.964         0.999995         170.669
61.32                   0.997413        -147.408      9.02613e-66        -179.966      9.02613e-66        -179.966         0.999995         170.637
61.33                   0.997815        -148.662       9.0263e-66        -179.968       9.0263e-66        -179.968         0.999995         170.605
61.34                   0.998129        -149.758      9.02645e-66        -179.969      9.02645e-66        -179.969         0.999995         170.574
61.35                   0.998378        -150.723      9.02657e-66        -179.971      9.02657e-66        -179.971         0.999995         170.544
61.36                   0.998578        -151.579      9.02667e-66        -179.972      9.02667e-66        -179.972         0.999995         170.514
61.37                   0.998742        -152.345      9.02676e-66        -179.973      9.02676e-66        -179.973         0.999995         170.485
61.38                   0.998877        -153.035      9.02684e-66        -179.974      9.02684e-66        -179.974         0.999995         170.456
61.39                   0.998991        -153.658      9.02691e-66        -179.975      9.02691e-66        -179.975         0.999995         170.428
61.4                    0.999087        -154.224      9.02697e-66        -179.976      9.02697e-66        -179.976         0.999996           170.4
61.41                   0.999169        -154.742      9.02703e-66        -179.976      9.02703e-66        -179.976         0.999996         170.372
61.42                    0.99924        -155.216      9.02708e-66        -179.977      9.02708e-66        -179.977         0.999996         170.345
61.43                   0.999302        -155.653      9.02712e-66        -179.978      9.02712e-66        -179.978         0.999996         170.318
61.44                   0.999356        -156.057      9.02717e-66        -179.978      9.02717e-66        -179.978         0.999996         170.292
61.45                   0.999404        -156.431       9.0272e-66        -179.979       9.0272e-66        -179.979         0.999996         170.266
61.46                   0.999446        -156.779      9.02724e-66         -179.98      9.02724e-66         -179.98         0.999996         170.241
61.47                   0.999484        -157.103      9.02727e-66         -179.98      9.02727e-66         -179.98         0.999996         170.215
61.48                   0.999518        -157.407       9.0273e-66        -179.981       9.0273e-66        -179.981         0.999996          170.19
61.49                   0.999549        -157.691      9.02732e-66        -179.981      9.02732e-66        -179.981         0.999997         170.166
61.5                    0.999577        -157.959      9.02735e-66        -179.981      9.02735e-66        -179.981         0.999997         170.141
61.51                   0.999603        -158.211      9.02737e-66        -179.982      9.02737e-66        -179.982         0.999997         170.117
61.52                   0.999626        -158.448      9.02739e-66        -179.982      9.02739e-66        -179.982         0.999997         170.093
61.53                   0.999648        -158.674      9.02741e-66        -179.983      9.02741e-66        -179.983         0.999997          170.07
61.54                   0.999668        -158.887      8.02438e-66        -179.983      8.02438e-66        -179.983         0.999997         170.046
61.55                   0.999686         -159.09       8.0244e-66        -179.983       8.0244e-66        -179.983         0.999997         170.023
61.56                   0.999703        -159.283      8.02441e-66        -179.984      8.02441e-66        -179.984         0.999998             170
61.57                   0.999719        -159.467      8.02443e-66        -179.984      8.02443e-66        -179.984         0.999998         169.977
61.58                   0.999734        -159.643      8.02444e-66        -179.984      8.02444e-66        -179.984         0.999998         169.954
61.59                   0.999748        -159.812      8.02445e-66        -179.985      8.02445e-66        -179.985         0.999998         169.931
61.6                    0.999761        -159.974      8.02446e-66        -179.985      8.02446e-66        -179.985         0.999998         169.908
61.61                   0.999774         -160.13      8.02448e-66        -179.985      8.02448e-66        -179.985         0.999999         169.885
61.62                   0.999786         -160.28      8.02449e-66        -179.985      8.02449e-66        -179.985         0.999999         169.862
61.63                   0.999797        -160.424       8.0245e-66        -179.986       8.0245e-66        -179.986         0.999999         169.839
61.64                   0.999807        -160.564      8.02451e-66        -179.986      8.02451e-66        -179.986         0.999999         169.816
61.65                   0.999818          -160.7      8.02452e-66        -179.986      8.02452e-66        -179.986         0.999999         169.793
61.66                   0.999827        -160.832      8.02452e-66        -179.986      8.02452e-66        -179.986         0.999999          169.77
61.67                   0.999837         -160.96      8.02453e-66        -179.987      8.02453e-66        -179.987                1         169.746
61.68                   0.999845        -161.085      8.02454e-66        -179.987      8.02454e-66        -179.987                1         169.722
61.69                   0.999854        -161.208      8.02455e-66        -179.987      8.02455e-66        -179.987                1         169.697
61.7                    0.999862        -161.328      8.02456e-66        -179.987      8.02456e-66        -179.987                1         169.672
61.71                    0.99987        -161.447      8.02456e-66        -179.987      8.02456e-66        -179.987                1         169.646
61.72                   0.999878        -161.563      8.02457e-66        -179.988      8.02457e-66        -179.988                1         169.619
61.73                   0.999886        -161.679      8.02458e-66        -179.988      8.02458e-66        -179.988                1         169.591
61.74                   0.999893        -161.794      8.02459e-66        -179.988      8.02459e-66        -179.988                1         169.562
61.75                   0.999901        -161.909      8.02459e-66        -179.988      8.02459e-66        -179.988                1         169.531
61.76                   0.999908        -162.024       8.0246e-66        -179.989       8.0246e-66        -179.989                1         169.497
61.77                   0.999915         -162.14      8.02461e-66        -179.989      8.02461e-66        -179.989                1         169.461
61.78                   0.999922        -162.257      8.02461e-66        -179.989      8.02461e-66        -179.989                1         169.422
61.79                   0.999928        -162.376      8.02462e-66        -179.989      8.02462e-66        -179.989                1         169.378
61.8                    0.999935        -162.499      8.02463e-66         -179.99      8.02463e-66         -179.99                1         169.327
61.81                   0.999942        -162.625      8.02463e-66         -179.99      8.02463e-66         -179.99                1         169.268
61.82                   0.999949        -162.757      8.02464e-66         -179.99      8.02464e-66         -179.99                1         169.197
61.83                   0.999955        -162.895      8.02464e-66         -179.99      8.02464e-66         -179.99                1         169.108
61.84                   0.999962        -163.041      8.02465e-66        -179.991      8.02465e-66        -179.991                1          168.99
61.85                   0.999968        -163.198      8.02465e-66        -179.991      8.02465e-66        -179.991                1         168.823
61.86                   0.999973        -163.367      8.02465e-66        -179.992      8.02465e-66        -179.992                1         168.561
61.87                   0.999974        -163.553      8.02464e-66        -179.993      8.02464e-66        -179.993                1         168.078
61.88                   0.999947        -163.753                0               0                0               0                1         166.832
61.89                   0.999932        -164.081                0               0                0               0         0.999994         155.082
61.9                           1        -164.309      7.02178e-66        -179.985      7.02178e-66        -179.985                1         173.984
61.91                          1        -164.642      7.02174e-66        -179.989      7.02174e-66        -179.989                1         171.468
61.92                          1        -165.059      7.02174e-66        -179.991      7.02174e-66        -179.991                1         170.761
61.93                          1        -165.598      7.02175e-66        -179.993      7.02175e-66        -179.993                1         170.423
61.94                          1        -166.331      6.01867e-66        -179.994      6.01867e-66        -179.994                1         170.222
61.95                          1        -167.402      6.01871e-66        -179.996      6.01871e-66        -179.996                1         170.086
61.96                          1         -169.14      6.01876e-66        -179.999      6.01876e-66        -179.999                1         169.987
61.97                          1        -172.509      6.01885e-66         179.996      6.01885e-66         179.996                1         169.911