! TOUCHSTONE file generated by CST MICROWAVE STUDIO
! Date and time: Sat Feb 17 15:53:01 2024
! Project name: metal_rotado.cst
! Parameters = {PX=0; angX=2; angY=2}
! Header version: 2018
! Port assignment regex: !\s*Touchstone port\s*([0-9]+)\s*=\s*(CST MWS port|CST DS port)\s*([0-9]+|Zmin|Zmax)\s*\(\"(.*)\"\)(\s*mode\s*([0-9]+))?.*
! Touchstone port assignment:
! Touchstone port 1 = CST MWS port 1 ("")
! Touchstone port 2 = CST MWS port 2 ("")
# GHz S MA R 376.7
60                      0.999998        -179.597      3.99914e-66             180      3.99914e-66             180                1         -179.59
60.01                   0.999999        -179.597      3.99914e-66             180      3.99914e-66             180                1         -179.59
60.02                          1        -179.597      3.99914e-66             180      3.99914e-66             180         0.999998        -179.591
60.03                          1        -179.596      3.99914e-66             180      3.99914e-66             180         0.999997        -179.591
60.04                          1        -179.596      3.99914e-66             180      3.99914e-66             180         0.999996        -179.591
60.05                          1        -179.596      3.99914e-66             180      3.99914e-66             180         0.999995        -179.591
60.06                          1        -179.596      3.99914e-66             180      3.99914e-66             180         0.999994        -179.591
60.07                          1        -179.595      3.99914e-66             180      3.99914e-66             180         0.999992        -179.591
60.08                          1        -179.595      3.99914e-66             180      3.99914e-66             180         0.999991        -179.592
60.09                          1        -179.595      3.99914e-66             180      3.99914e-66             180          0.99999        -179.592
60.1                           1        -179.594      3.99914e-66             180      3.99914e-66             180         0.999989        -179.592
60.11                          1        -179.594      3.99914e-66             180      3.99914e-66             180         0.999988        -179.592
60.12                          1        -179.594      3.99914e-66             180      3.99914e-66             180         0.999987        -179.592
60.13                          1        -179.594      3.99914e-66             180      3.99914e-66             180         0.999986        -179.592
60.14                          1        -179.593      3.99914e-66             180      3.99914e-66             180         0.999985        -179.593
60.15                          1        -179.593      3.99914e-66             180      3.99914e-66             180         0.999984        -179.593
60.16                          1        -179.593      3.99914e-66             180      3.99914e-66             180         0.999983        -179.593
60.17                          1        -179.592      3.99914e-66             180      3.99914e-66             180         0.999982        -179.593
60.18                          1        -179.592      3.99914e-66             180      3.99914e-66             180         0.999982        -179.593
60.19                          1        -179.592      3.99914e-66             180      3.99914e-66             180         0.999981        -179.593
60.2                           1        -179.591      3.99914e-66             180      3.99914e-66             180          0.99998        -179.593
60.21                          1        -179.591      3.99914e-66             180      3.99914e-66             180         0.999979        -179.593
60.22                          1        -179.591      3.99914e-66             180      3.99914e-66             180         0.999978        -179.594
60.23                          1         -179.59      3.99914e-66             180      3.99914e-66             180         0.999977        -179.594
60.24                          1         -179.59      3.99914e-66             180      3.99914e-66             180         0.999976        -179.594
60.25                          1         -179.59      3.99914e-66             180      3.99914e-66             180         0.999976        -179.594
60.26                          1        -179.589      3.99914e-66             180      3.99914e-66             180         0.999975        -179.594
60.27                          1        -179.589      3.99914e-66             180      3.99914e-66             180         0.999974        -179.594
60.28                          1        -179.589      3.99914e-66             180      3.99914e-66             180         0.999973        -179.594
60.29                          1        -179.588      3.99914e-66             180      3.99914e-66             180         0.999973        -179.594
60.3                           1        -179.588      3.99914e-66             180      3.99914e-66             180         0.999972        -179.595
60.31                          1        -179.588      3.99914e-66             180      3.99914e-66             180         0.999971        -179.595
60.32                          1        -179.587      3.99914e-66             180      3.99914e-66             180         0.999971        -179.595
60.33                          1        -179.587      3.99914e-66             180      3.99914e-66             180          0.99997        -179.595
60.34                          1        -179.587      3.99914e-66             180      3.99914e-66             180         0.999969        -179.595
60.35                          1        -179.586      3.99914e-66             180      3.99914e-66             180         0.999969        -179.595
60.36                          1        -179.586      3.99914e-66             180      3.99914e-66             180         0.999968        -179.595
60.37                          1        -179.585      3.99914e-66             180      3.99914e-66             180         0.999968        -179.595
60.38                          1        -179.585      3.99914e-66             180      3.99914e-66             180         0.999967        -179.595
60.39                          1        -179.585      3.99914e-66             180      3.99914e-66             180         0.999967        -179.595
60.4                           1        -179.584      3.99914e-66             180      3.99914e-66             180         0.999966        -179.595
60.41                          1        -179.584      3.99914e-66             180      3.99914e-66             180         0.999965        -179.595
60.42                          1        -179.583      3.99914e-66             180      3.99914e-66             180         0.999965        -179.595
60.43                          1        -179.583      3.99914e-66             180      3.99914e-66             180         0.999964        -179.596
60.44                          1        -179.583      3.99914e-66             180      3.99914e-66             180         0.999964        -179.596
60.45                          1        -179.582      3.99914e-66             180      3.99914e-66             180         0.999963        -179.596
60.46                          1        -179.582      3.99914e-66             180      3.99914e-66             180         0.999963        -179.596
60.47                          1        -179.581      3.99914e-66             180      3.99914e-66             180         0.999963        -179.596
60.48                          1        -179.581      3.99914e-66             180      3.99914e-66             180         0.999962        -179.596
60.49                          1         -179.58      3.99914e-66             180      3.99914e-66             180         0.999962        -179.596
60.5                           1         -179.58      3.99914e-66             180      3.99914e-66             180         0.999961        -179.596
60.51                          1         -179.58      3.99914e-66             180      3.99914e-66             180         0.999961        -179.596
60.52                          1        -179.579      3.99914e-66             180      3.99914e-66             180         0.999961        -179.596
60.53                          1        -179.579      3.99914e-66             180      3.99914e-66             180          0.99996        -179.596
60.54                          1        -179.578      3.99914e-66             180      3.99914e-66             180          0.99996        -179.596
60.55                          1        -179.578      3.99914e-66             180      3.99914e-66             180         0.999959        -179.596
60.56                          1        -179.577      3.99914e-66             180      3.99914e-66             180         0.999959        -179.596
60.57                          1        -179.577      3.99914e-66             180      3.99914e-66             180         0.999959        -179.596
60.58                          1        -179.576      3.99914e-66             180      3.99914e-66             180         0.999959        -179.596
60.59                          1        -179.576      3.99914e-66             180      3.99914e-66             180         0.999958        -179.596
60.6                           1        -179.575      3.99914e-66             180      3.99914e-66             180         0.999958        -179.596
60.61                          1        -179.575      3.99914e-66             180      3.99914e-66             180         0.999958        -179.596
60.62                          1        -179.574      3.99914e-66             180      3.99914e-66             180         0.999957        -179.596
60.63                          1        -179.574      3.99914e-66             180      3.99914e-66             180         0.999957        -179.596
60.64                          1        -179.573      3.99914e-66             180      3.99914e-66             180         0.999957        -179.596
60.65                          1        -179.573      3.99914e-66             180      3.99914e-66             180         0.999957        -179.596
60.66                          1        -179.572      3.99914e-66             180      3.99914e-66             180         0.999957        -179.596
60.67                          1        -179.572      3.99914e-66             180      3.99914e-66             180         0.999956        -179.596
60.68                          1        -179.571      3.99914e-66             180      3.99914e-66             180         0.999956        -179.596
60.69                          1         -179.57      3.99914e-66             180      3.99914e-66             180         0.999956        -179.596
60.7                           1         -179.57      3.99914e-66             180      3.99914e-66             180         0.999956        -179.596
60.71                          1        -179.569      3.99914e-66             180      3.99914e-66             180         0.999956        -179.596
60.72                          1        -179.569      3.99914e-66             180      3.99914e-66             180         0.999955        -179.596
60.73                          1        -179.568      3.99914e-66             180      3.99914e-66             180         0.999955        -179.596
60.74                          1        -179.568      3.99914e-66             180      3.99914e-66             180         0.999955        -179.596
60.75                          1        -179.567      3.99914e-66             180      3.99914e-66             180         0.999955        -179.596
60.76                          1        -179.567      3.99914e-66             180      3.99914e-66             180         0.999955        -179.596
60.77                          1        -179.566      3.99914e-66             180      3.99914e-66             180         0.999955        -179.596
60.78                          1        -179.566      3.99914e-66             180      3.99914e-66             180         0.999955        -179.596
60.79                          1        -179.565      3.99914e-66             180      3.99914e-66             180         0.999955        -179.596
60.8                           1        -179.565      2.99936e-66             180      2.99936e-66             180         0.999955        -179.596
60.81                          1        -179.564      2.99936e-66             180      2.99936e-66             180         0.999955        -179.595
60.82                          1        -179.564      2.99936e-66             180      2.99936e-66             180         0.999954        -179.595
60.83                          1        -179.563      2.99936e-66             180      2.99936e-66             180         0.999954        -179.595
60.84                          1        -179.563      2.99936e-66             180      2.99936e-66             180         0.999954        -179.595
60.85                          1        -179.562      2.99936e-66             180      2.99936e-66             180         0.999954        -179.595
60.86                          1        -179.562      2.99936e-66             180      2.99936e-66             180         0.999954        -179.595
60.87                          1        -179.562      2.99936e-66             180      2.99936e-66             180         0.999954        -179.595
60.88                          1        -179.561      2.99936e-66             180      2.99936e-66             180         0.999954        -179.595
60.89                          1        -179.561      2.99936e-66             180      2.99936e-66             180         0.999954        -179.595
60.9                           1        -179.561      2.99936e-66             180      2.99936e-66             180         0.999954        -179.595
60.91                          1        -179.561      2.99936e-66             180      2.99936e-66             180         0.999954        -179.595
60.92                          1        -179.561      2.99936e-66             180      2.99936e-66             180         0.999954        -179.595
60.93                          1        -179.561      2.99936e-66             180      2.99936e-66             180         0.999954        -179.594
60.94                          1        -179.561      2.99936e-66             180      2.99936e-66             180         0.999954        -179.594
60.95                          1        -179.562      2.99936e-66             180      2.99936e-66             180         0.999954        -179.594
60.96                          1        -179.562      2.99936e-66             180      2.99936e-66             180         0.999955        -179.594
60.97                          1        -179.563      2.99936e-66             180      2.99936e-66             180         0.999955        -179.594
60.98                          1        -179.564      2.99936e-66             180      2.99936e-66             180         0.999955        -179.594
60.99                          1        -179.565      2.99936e-66             180      2.99936e-66             180         0.999955        -179.594
61                             1        -179.566      2.99936e-66             180      2.99936e-66             180         0.999955        -179.594
61.01                          1        -179.567      2.99936e-66             180      2.99936e-66             180         0.999955        -179.594
61.02                          1        -179.569      2.99936e-66             180      2.99936e-66             180         0.999955        -179.593
61.03                          1        -179.571      2.99936e-66             180      2.99936e-66             180         0.999955        -179.593
61.04                          1        -179.573      2.99936e-66             180      2.99936e-66             180         0.999955        -179.593
61.05                          1        -179.575      2.99936e-66             180      2.99936e-66             180         0.999955        -179.593
61.06                          1        -179.578      2.99936e-66             180      2.99936e-66             180         0.999955        -179.593
61.07                          1        -179.581      2.99936e-66             180      2.99936e-66             180         0.999956        -179.593
61.08                          1        -179.584      2.99936e-66             180      2.99936e-66             180         0.999956        -179.593
61.09                          1        -179.587      2.99936e-66             180      2.99936e-66             180         0.999956        -179.592
61.1                           1        -179.591      2.99936e-66             180      2.99936e-66             180         0.999956        -179.592
61.11                          1        -179.594      2.99936e-66             180      2.99936e-66             180         0.999956        -179.592
61.12                          1        -179.598      2.99936e-66             180      2.99936e-66             180         0.999956        -179.592
61.13                          1        -179.601      2.99936e-66             180      2.99936e-66             180         0.999956        -179.592
61.14                          1        -179.605      2.99936e-66             180      2.99936e-66             180         0.999957        -179.592
61.15                          1        -179.608      2.99936e-66             180      2.99936e-66             180         0.999957        -179.591
61.16                          1        -179.611      2.99936e-66             180      2.99936e-66             180         0.999957        -179.591
61.17                          1        -179.614      2.99936e-66             180      2.99936e-66             180         0.999957        -179.591
61.18                          1        -179.617      2.99936e-66             180      2.99936e-66             180         0.999957        -179.591
61.19                          1         -179.62      2.99936e-66             180      2.99936e-66             180         0.999957        -179.591
61.2                           1        -179.622      2.99936e-66             180      2.99936e-66             180         0.999958         -179.59
61.21                          1        -179.624      2.99936e-66             180      2.99936e-66             180         0.999958         -179.59
61.22                          1        -179.625      2.99936e-66             180      2.99936e-66             180         0.999958         -179.59
61.23                          1        -179.627      2.99936e-66             180      2.99936e-66             180         0.999958         -179.59
61.24                          1        -179.628      2.99936e-66             180      2.99936e-66             180         0.999958         -179.59
61.25                          1        -179.628      2.99936e-66             180      2.99936e-66             180         0.999959        -179.589
61.26                          1        -179.629      2.99936e-66             180      2.99936e-66             180         0.999959        -179.589
61.27                          1        -179.629      2.99936e-66             180      2.99936e-66             180         0.999959        -179.589
61.28                          1        -179.629      2.99936e-66             180      2.99936e-66             180         0.999959        -179.589
61.29                          1        -179.629      2.99936e-66             180      2.99936e-66             180          0.99996        -179.589
61.3                           1        -179.629      2.99936e-66             180      2.99936e-66             180          0.99996        -179.588
61.31                          1        -179.628      2.99936e-66             180      2.99936e-66             180          0.99996        -179.588
61.32                          1        -179.628      2.99936e-66             180      2.99936e-66             180          0.99996        -179.588
61.33                          1        -179.627      2.99936e-66             180      2.99936e-66             180         0.999961        -179.588
61.34                          1        -179.627      2.99936e-66             180      2.99936e-66             180         0.999961        -179.587
61.35                          1        -179.626      2.99936e-66             180      2.99936e-66             180         0.999961        -179.587
61.36                          1        -179.625      2.99936e-66             180      2.99936e-66             180         0.999961        -179.587
61.37                          1        -179.624      2.99936e-66             180      2.99936e-66             180         0.999962        -179.587
61.38                          1        -179.623      2.99936e-66             180      2.99936e-66             180         0.999962        -179.586
61.39                          1        -179.622      2.99936e-66             180      2.99936e-66             180         0.999962        -179.586
61.4                           1        -179.621      2.99936e-66             180      2.99936e-66             180         0.999962        -179.586
61.41                          1         -179.62      2.99936e-66             180      2.99936e-66             180         0.999963        -179.586
61.42                          1        -179.619      2.99936e-66             180      2.99936e-66             180         0.999963        -179.585
61.43                          1        -179.618      2.99936e-66             180      2.99936e-66             180         0.999963        -179.585
61.44                          1        -179.617      2.99936e-66             180      2.99936e-66             180         0.999964        -179.585
61.45                          1        -179.616      2.99936e-66             180      2.99936e-66             180         0.999964        -179.584
61.46                          1        -179.615      2.99936e-66             180      2.99936e-66             180         0.999964        -179.584
61.47                          1        -179.614      2.99936e-66             180      2.99936e-66             180         0.999964        -179.584
61.48                          1        -179.613      2.99936e-66             180      2.99936e-66             180         0.999965        -179.584
61.49                          1        -179.612      2.99936e-66             180      2.99936e-66             180         0.999965        -179.583
61.5                           1        -179.611      2.99936e-66             180      2.99936e-66             180         0.999965        -179.583
61.51                          1         -179.61      2.99936e-66             180      2.99936e-66             180         0.999966        -179.583
61.52                          1        -179.609      2.99936e-66             180      2.99936e-66             180         0.999966        -179.582
61.53                          1        -179.608      2.99936e-66             180      2.99936e-66             180         0.999966        -179.582
61.54                          1        -179.607      2.99936e-66             180      2.99936e-66             180         0.999967        -179.582
61.55                          1        -179.606      2.99936e-66             180      2.99936e-66             180         0.999967        -179.581
61.56                          1        -179.605      2.99936e-66             180      2.99936e-66             180         0.999967        -179.581
61.57                          1        -179.604      2.99936e-66             180      2.99936e-66             180         0.999968        -179.581
61.58                          1        -179.603      2.99936e-66             180      2.99936e-66             180         0.999968         -179.58
61.59                          1        -179.602                0               0                0               0         0.999968         -179.58
61.6                    0.999994        -179.601      2.99936e-66             180      2.99936e-66             180         0.999969         -179.58
61.61                   0.999988          -179.6      2.99936e-66             180      2.99936e-66             180         0.999969        -179.579
61.62                   0.999982        -179.599      2.99936e-66             180      2.99936e-66             180         0.999969        -179.579
61.63                   0.999977        -179.599      2.99936e-66             180      2.99936e-66             180          0.99997        -179.579
61.64                   0.999972        -179.598      2.99936e-66             180      2.99936e-66             180          0.99997        -179.578
61.65                   0.999968        -179.597      2.99936e-66             180      2.99936e-66             180          0.99997        -179.578
61.66                   0.999964        -179.596      2.99936e-66             180      2.99936e-66             180         0.999971        -179.578
61.67                   0.999959        -179.595      2.99936e-66             180      2.99936e-66             180         0.999971        -179.577
61.68                   0.999956        -179.594      2.99936e-66             180      2.99936e-66             180         0.999971        -179.577
61.69                   0.999952        -179.594      2.99936e-66             180      2.99936e-66             180         0.999972        -179.577
61.7                    0.999949        -179.593      2.99936e-66             180      2.99936e-66             180         0.999972        -179.576
61.71                   0.999945        -179.592      2.99936e-66             180      2.99936e-66             180         0.999972        -179.576
61.72                   0.999942        -179.591      2.99936e-66             180      2.99936e-66             180         0.999973        -179.576
61.73                    0.99994        -179.591      2.99936e-66             180      2.99936e-66             180         0.999973        -179.575
61.74                   0.999937         -179.59      2.99936e-66             180      2.99936e-66             180         0.999973        -179.575
61.75                   0.999934        -179.589      2.99936e-66             180      2.99936e-66             180         0.999974        -179.574
61.76                   0.999932        -179.588      2.99936e-66             180      2.99936e-66             180         0.999974        -179.574
61.77                    0.99993        -179.588      2.99936e-66             180      2.99936e-66             180         0.999974        -179.574
61.78                   0.999928        -179.587      2.99936e-66             180      2.99936e-66             180         0.999975        -179.573
61.79                   0.999926        -179.586      2.99936e-66             180      2.99936e-66             180         0.999975        -179.573
61.8                    0.999924        -179.585      2.99936e-66             180      2.99936e-66             180         0.999975        -179.572
61.81                   0.999922        -179.585      2.99936e-66             180      2.99936e-66             180         0.999976        -179.572
61.82                    0.99992        -179.584      2.99936e-66             180      2.99936e-66             180         0.999976        -179.572
61.83                   0.999919        -179.583      2.99936e-66             180      2.99936e-66             180         0.999976        -179.571
61.84                   0.999917        -179.582      2.99936e-66             180      2.99936e-66             180         0.999977        -179.571
61.85                   0.999916        -179.582      2.99936e-66             180      2.99936e-66             180         0.999977         -179.57
61.86                   0.999914        -179.581      2.99936e-66             180      2.99936e-66             180         0.999978         -179.57
61.87                   0.999913         -179.58      2.99936e-66             180      2.99936e-66             180         0.999978        -179.569
61.88                   0.999912         -179.58      2.99936e-66             180      2.99936e-66             180         0.999978        -179.569
61.89                   0.999911        -179.579      2.99936e-66             180      2.99936e-66             180         0.999979        -179.569
61.9                     0.99991        -179.578      2.99936e-66             180      2.99936e-66             180         0.999979        -179.568
61.91                   0.999909        -179.578      2.99936e-66             180      2.99936e-66             180         0.999979        -179.568
61.92                   0.999908        -179.577      2.99936e-66             180      2.99936e-66             180          0.99998        -179.567
61.93                   0.999907        -179.576      2.99936e-66             180      2.99936e-66             180          0.99998        -179.567
61.94                   0.999906        -179.576      2.99936e-66             180      2.99936e-66             180          0.99998        -179.566
61.95                   0.999906        -179.575      2.99936e-66             180      2.99936e-66             180         0.999981        -179.566
61.96                   0.999905        -179.574      2.99936e-66             180      2.99936e-66             180         0.999981        -179.565
61.97                   0.999904        -179.574      2.99936e-66             180      2.99936e-66             180         0.999982        -179.565