! TOUCHSTONE file generated by CST MICROWAVE STUDIO
! Date and time: Sat Feb 17 15:53:04 2024
! Project name: metal_rotado.cst
! Parameters = {PX=0.25; angX=2; angY=2}
! Header version: 2018
! Port assignment regex: !\s*Touchstone port\s*([0-9]+)\s*=\s*(CST MWS port|CST DS port)\s*([0-9]+|Zmin|Zmax)\s*\(\"(.*)\"\)(\s*mode\s*([0-9]+))?.*
! Touchstone port assignment:
! Touchstone port 1 = CST MWS port 1 ("")
! Touchstone port 2 = CST MWS port 2 ("")
# GHz S MA R 376.7
60                             1        -175.975      4.00264e-66            -180      4.00264e-66            -180          0.99997           177.4
60.01                          1        -175.975      4.00264e-66            -180      4.00264e-66            -180         0.999953           177.4
60.02                          1        -175.974      4.00264e-66            -180      4.00264e-66            -180         0.999937         177.399
60.03                          1        -175.973      4.00264e-66            -180      4.00264e-66            -180         0.999921         177.399
60.04                          1        -175.971      4.00264e-66            -180      4.00264e-66            -180         0.999905         177.399
60.05                          1        -175.969      4.00264e-66            -180      4.00264e-66            -180         0.999889         177.399
60.06                          1        -175.967      4.00264e-66            -180      4.00264e-66            -180         0.999874         177.398
60.07                          1        -175.964      4.00264e-66            -180      4.00264e-66            -180         0.999858         177.398
60.08                          1         -175.96      4.00264e-66            -180      4.00264e-66            -180         0.999843         177.398
60.09                          1        -175.957      4.00264e-66            -180      4.00264e-66            -180         0.999828         177.397
60.1                           1        -175.952      4.00264e-66            -180      4.00264e-66            -180         0.999813         177.397
60.11                          1        -175.947      4.00264e-66            -180      4.00264e-66            -180         0.999798         177.397
60.12                          1        -175.942      4.00264e-66            -180      4.00264e-66            -180         0.999783         177.397
60.13                          1        -175.936      4.00264e-66            -180      4.00264e-66            -180         0.999768         177.396
60.14                          1         -175.93      4.00264e-66            -180      4.00264e-66            -180         0.999753         177.396
60.15                          1        -175.923      4.00264e-66            -180      4.00264e-66            -180         0.999739         177.396
60.16                          1        -175.915      4.00264e-66            -180      4.00264e-66            -180         0.999725         177.396
60.17                          1        -175.908      4.00264e-66            -180      4.00264e-66            -180          0.99971         177.396
60.18                          1        -175.899      4.00264e-66            -180      4.00264e-66            -180         0.999696         177.395
60.19                          1         -175.89      4.00264e-66            -180      4.00264e-66            -180         0.999682         177.395
60.2                           1        -175.881      4.00264e-66        -179.999      4.00264e-66        -179.999         0.999668         177.395
60.21                          1        -175.871      4.00264e-66        -179.999      4.00264e-66        -179.999         0.999655         177.395
60.22                          1        -175.861      4.00264e-66        -179.999      4.00264e-66        -179.999         0.999641         177.395
60.23                          1         -175.85      4.00264e-66        -179.999      4.00264e-66        -179.999         0.999627         177.395
60.24                          1        -175.839      4.00264e-66        -179.999      4.00264e-66        -179.999         0.999614         177.394
60.25                          1        -175.827      4.00264e-66        -179.999      4.00264e-66        -179.999           0.9996         177.394
60.26                          1        -175.815      4.00264e-66        -179.999      4.00264e-66        -179.999         0.999587         177.394
60.27                          1        -175.803      4.00264e-66        -179.999      4.00264e-66        -179.999         0.999573         177.394
60.28                          1        -175.791      4.00264e-66        -179.999      4.00264e-66        -179.999          0.99956         177.394
60.29                          1        -175.778      4.00264e-66        -179.999      4.00264e-66        -179.999         0.999547         177.394
60.3                           1        -175.766      4.00264e-66        -179.999      4.00264e-66        -179.999         0.999533         177.394
60.31                          1        -175.753      4.00264e-66        -179.999      4.00264e-66        -179.999          0.99952         177.394
60.32                          1         -175.74      4.00264e-66        -179.999      4.00264e-66        -179.999         0.999507         177.394
60.33                          1        -175.727      4.00264e-66        -179.999      4.00264e-66        -179.999         0.999494         177.393
60.34                          1        -175.715      4.00264e-66        -179.999      4.00264e-66        -179.999         0.999481         177.393
60.35                          1        -175.702      4.00264e-66        -179.999      4.00264e-66        -179.999         0.999468         177.393
60.36                          1        -175.689      4.00264e-66        -179.999      4.00264e-66        -179.999         0.999455         177.393
60.37                          1        -175.677      4.00264e-66        -179.999      4.00264e-66        -179.999         0.999442         177.393
60.38                          1        -175.665      4.00264e-66        -179.999      4.00264e-66        -179.999         0.999429         177.393
60.39                          1        -175.653      4.00264e-66        -179.999      4.00264e-66        -179.999         0.999417         177.393
60.4                           1        -175.641      4.00264e-66        -179.999      4.00264e-66        -179.999         0.999404         177.393
60.41                          1        -175.629      4.00264e-66        -179.999      4.00264e-66        -179.999         0.999391         177.393
60.42                          1        -175.618      4.00264e-66        -179.999      4.00264e-66        -179.999         0.999378         177.393
60.43                          1        -175.607      4.00264e-66        -179.999      4.00264e-66        -179.999         0.999365         177.393
60.44                          1        -175.597      4.00264e-66        -179.999      4.00264e-66        -179.999         0.999352         177.393
60.45                          1        -175.587      4.00264e-66        -179.999      4.00264e-66        -179.999          0.99934         177.393
60.46                          1        -175.577      4.00264e-66        -179.999      4.00264e-66        -179.999         0.999327         177.393
60.47                          1        -175.568      4.00264e-66        -179.999      4.00264e-66        -179.999         0.999314         177.393
60.48                          1        -175.559      4.00264e-66        -179.999      4.00264e-66        -179.999         0.999301         177.393
60.49                          1        -175.551      4.00264e-66        -179.999      4.00264e-66        -179.999         0.999288         177.393
60.5                           1        -175.543      4.00264e-66        -179.999      4.00264e-66        -179.999         0.999275         177.393
60.51                          1        -175.535      4.00264e-66        -179.999      4.00264e-66        -179.999         0.999262         177.393
60.52                          1        -175.528      4.00264e-66        -179.999      4.00264e-66        -179.999         0.999249         177.393
60.53                          1        -175.521      4.00264e-66        -179.999      4.00264e-66        -179.999         0.999236         177.393
60.54                          1        -175.515      4.00264e-66        -179.999      4.00264e-66        -179.999         0.999223         177.393
60.55                          1        -175.509      4.00264e-66        -179.999      4.00264e-66        -179.999         0.999209         177.393
60.56                          1        -175.503      4.00264e-66        -179.999      4.00264e-66        -179.999         0.999196         177.393
60.57                          1        -175.498      4.00264e-66        -179.999      4.00264e-66        -179.999         0.999183         177.393
60.58                          1        -175.493      4.00264e-66        -179.999      4.00264e-66        -179.999         0.999169         177.393
60.59                          1        -175.489      4.00264e-66        -179.999      4.00264e-66        -179.999         0.999156         177.393
60.6                           1        -175.485      4.00264e-66        -179.999      4.00264e-66        -179.999         0.999142         177.393
60.61                          1        -175.481      4.00264e-66        -179.999      4.00264e-66        -179.999         0.999128         177.393
60.62                          1        -175.477      4.00264e-66        -179.999      4.00264e-66        -179.999         0.999115         177.393
60.63                          1        -175.474      4.00264e-66        -179.999      4.00264e-66        -179.999         0.999101         177.393
60.64                          1        -175.471      4.00264e-66        -179.999      4.00264e-66        -179.999         0.999087         177.393
60.65                          1        -175.469      4.00264e-66        -179.999      4.00264e-66        -179.999         0.999072         177.393
60.66                          1        -175.467      4.00264e-66        -179.999      4.00264e-66        -179.999         0.999058         177.394
60.67                          1        -175.464      4.00264e-66        -179.999      4.00264e-66        -179.999         0.999043         177.394
60.68                          1        -175.463      4.00264e-66        -179.999      4.00264e-66        -179.999         0.999029         177.394
60.69                          1        -175.461      4.00264e-66        -179.999      4.00264e-66        -179.999         0.999014         177.394
60.7                           1         -175.46      4.00264e-66        -179.999      4.00264e-66        -179.999         0.998999         177.394
60.71                          1        -175.458      4.00264e-66        -179.999      4.00264e-66        -179.999         0.998984         177.394
60.72                          1        -175.457      4.00264e-66        -179.999      4.00264e-66        -179.999         0.998968         177.394
60.73                          1        -175.457      4.00264e-66        -179.999      4.00264e-66        -179.999         0.998953         177.394
60.74                          1        -175.456      4.00264e-66        -179.999      4.00264e-66        -179.999         0.998937         177.394
60.75                          1        -175.456      4.00264e-66        -179.999      4.00264e-66        -179.999         0.998921         177.394
60.76                          1        -175.455      4.00264e-66        -179.999      4.00264e-66        -179.999         0.998904         177.394
60.77                          1        -175.455      4.00264e-66        -179.999      4.00264e-66        -179.999         0.998888         177.395
60.78                          1        -175.455      4.00264e-66        -179.999      4.00264e-66        -179.999         0.998871         177.395
60.79                          1        -175.455      4.00264e-66        -179.999      4.00264e-66        -179.999         0.998854         177.395
60.8                           1        -175.455      4.00264e-66        -179.999      4.00264e-66        -179.999         0.998836         177.395
60.81                          1        -175.456      4.00264e-66        -179.999      4.00264e-66        -179.999         0.998818         177.395
60.82                          1        -175.456      3.00198e-66        -179.999      3.00198e-66        -179.999           0.9988         177.395
60.83                          1        -175.457      3.00198e-66        -179.999      3.00198e-66        -179.999         0.998782         177.395
60.84                          1        -175.457      3.00198e-66        -179.999      3.00198e-66        -179.999         0.998763         177.395
60.85                          1        -175.458      3.00198e-66        -179.999      3.00198e-66        -179.999         0.998744         177.395
60.86                          1        -175.459      3.00198e-66        -179.999      3.00198e-66        -179.999         0.998724         177.395
60.87                          1         -175.46      3.00198e-66        -179.999      3.00198e-66        -179.999         0.998704         177.396
60.88                          1         -175.46      3.00198e-66        -179.999      3.00198e-66        -179.999         0.998683         177.396
60.89                          1        -175.461      3.00198e-66        -179.999      3.00198e-66        -179.999         0.998662         177.396
60.9                           1        -175.462      3.00198e-66        -179.999      3.00198e-66        -179.999         0.998641         177.396
60.91                          1        -175.463      3.00198e-66        -179.999      3.00198e-66        -179.999         0.998619         177.396
60.92                          1        -175.465      3.00198e-66        -179.999      3.00198e-66        -179.999         0.998596         177.396
60.93                          1        -175.466      3.00198e-66        -179.999      3.00198e-66        -179.999         0.998573         177.396
60.94                          1        -175.467      3.00198e-66        -179.999      3.00198e-66        -179.999         0.998549         177.396
60.95                          1        -175.468      3.00198e-66        -179.999      3.00198e-66        -179.999         0.998525         177.396
60.96                          1        -175.469      3.00198e-66        -179.999      3.00198e-66        -179.999           0.9985         177.397
60.97                          1        -175.471      3.00198e-66        -179.999      3.00198e-66        -179.999         0.998474         177.397
60.98                          1        -175.472      3.00198e-66        -179.999      3.00198e-66        -179.999         0.998447         177.397
60.99                          1        -175.473      3.00198e-66        -179.999      3.00198e-66        -179.999          0.99842         177.397
61                             1        -175.475      3.00198e-66        -179.999      3.00198e-66        -179.999         0.998391         177.397
61.01                          1        -175.476      3.00198e-66        -179.999      3.00198e-66        -179.999         0.998362         177.397
61.02                          1        -175.478      3.00198e-66        -179.999      3.00198e-66        -179.999         0.998332         177.397
61.03                          1        -175.479      3.00198e-66        -179.999      3.00198e-66        -179.999         0.998301         177.397
61.04                          1         -175.48      3.00198e-66        -179.999      3.00198e-66        -179.999         0.998269         177.398
61.05                          1        -175.482      3.00198e-66        -179.999      3.00198e-66        -179.999         0.998235         177.398
61.06                          1        -175.483      3.00198e-66        -179.999      3.00198e-66        -179.999         0.998201         177.398
61.07                          1        -175.485      3.00198e-66        -179.999      3.00198e-66        -179.999         0.998165         177.398
61.08                          1        -175.486      3.00198e-66        -179.999      3.00198e-66        -179.999         0.998128         177.398
61.09                          1        -175.488      3.00198e-66        -179.999      3.00198e-66        -179.999         0.998089         177.398
61.1                           1        -175.489      3.00198e-66        -179.999      3.00198e-66        -179.999         0.998049         177.399
61.11                          1        -175.491      3.00198e-66        -179.999      3.00198e-66        -179.999         0.998008         177.399
61.12                          1        -175.492      3.00198e-66        -179.999      3.00198e-66        -179.999         0.997964         177.399
61.13                          1        -175.494      3.00198e-66        -179.999      3.00198e-66        -179.999         0.997919         177.399
61.14                          1        -175.495      3.00198e-66        -179.999      3.00198e-66        -179.999         0.997872         177.399
61.15                          1        -175.497      3.00198e-66        -179.999      3.00198e-66        -179.999         0.997822           177.4
61.16                          1        -175.498      3.00198e-66        -179.999      3.00198e-66        -179.999         0.997771           177.4
61.17                          1        -175.499      3.00198e-66        -179.999      3.00198e-66        -179.999         0.997717           177.4
61.18                          1        -175.501      3.00198e-66        -179.999      3.00198e-66        -179.999          0.99766           177.4
61.19                          1        -175.502      3.00198e-66        -179.999      3.00198e-66        -179.999         0.997601         177.401
61.2                           1        -175.504      3.00198e-66        -179.999      3.00198e-66        -179.999         0.997539         177.401
61.21                          1        -175.505      3.00198e-66        -179.999      3.00198e-66        -179.999         0.997473         177.402
61.22                          1        -175.507      3.00198e-66        -179.999      3.00198e-66        -179.999         0.997404         177.402
61.23                          1        -175.508      3.00198e-66        -179.999      3.00198e-66        -179.999         0.997332         177.403
61.24                   0.999982        -175.509      3.00198e-66        -179.999      3.00198e-66        -179.999         0.997255         177.403
61.25                   0.999965        -175.511      3.00198e-66        -179.999      3.00198e-66        -179.999         0.997174         177.404
61.26                   0.999948        -175.512      3.00198e-66        -179.999      3.00198e-66        -179.999         0.997089         177.405
61.27                   0.999932        -175.514      3.00198e-66        -179.999      3.00198e-66        -179.999         0.996999         177.406
61.28                   0.999917        -175.515      3.00198e-66        -179.999      3.00198e-66        -179.999         0.996903         177.407
61.29                   0.999902        -175.516      3.00198e-66        -179.999      3.00198e-66        -179.999         0.996802         177.408
61.3                    0.999888        -175.518      3.00198e-66        -179.999      3.00198e-66        -179.999         0.996694          177.41
61.31                   0.999874        -175.519      3.00198e-66        -179.999      3.00198e-66        -179.999         0.996579         177.412
61.32                   0.999861         -175.52      3.00198e-66        -179.999      3.00198e-66        -179.999         0.996458         177.414
61.33                   0.999848        -175.522      3.00198e-66        -179.999      3.00198e-66        -179.999         0.996328         177.416
61.34                   0.999836        -175.523      3.00198e-66        -179.999      3.00198e-66        -179.999          0.99619         177.419
61.35                   0.999825        -175.524      3.00198e-66        -179.999      3.00198e-66        -179.999         0.996044         177.422
61.36                   0.999814        -175.526      3.00198e-66        -179.999      3.00198e-66        -179.999         0.995887         177.426
61.37                   0.999803        -175.527      3.00198e-66        -179.999      3.00198e-66        -179.999         0.995721          177.43
61.38                   0.999793        -175.528      3.00198e-66        -179.999      3.00198e-66        -179.999         0.995544         177.435
61.39                   0.999783        -175.529      3.00198e-66        -179.999      3.00198e-66        -179.999         0.995357         177.441
61.4                    0.999774        -175.531      3.00198e-66        -179.999      3.00198e-66        -179.999         0.995159         177.448
61.41                   0.999765        -175.532      3.00198e-66        -179.999      3.00198e-66        -179.999          0.99495         177.457
61.42                   0.999757        -175.533      3.00198e-66        -179.999      3.00198e-66        -179.999         0.994731         177.467
61.43                   0.999749        -175.534      3.00198e-66        -179.999      3.00198e-66        -179.999         0.994505         177.478
61.44                   0.999741        -175.536      3.00198e-66        -179.999      3.00198e-66        -179.999         0.994273         177.492
61.45                   0.999734        -175.537      3.00198e-66        -179.999      3.00198e-66        -179.999          0.99404         177.508
61.46                   0.999727        -175.538      3.00198e-66        -179.999      3.00198e-66        -179.999         0.993811         177.528
61.47                    0.99972        -175.539      3.00198e-66        -179.999      3.00198e-66        -179.999         0.993596          177.55
61.48                   0.999714         -175.54      3.00198e-66        -179.999      3.00198e-66        -179.999         0.993406         177.575
61.49                   0.999708        -175.541      3.00198e-66        -179.999      3.00198e-66        -179.999         0.993256         177.605
61.5                    0.999702        -175.542      3.00198e-66        -179.999      3.00198e-66        -179.999         0.993164         177.638
61.51                   0.999697        -175.543      3.00198e-66        -179.999      3.00198e-66        -179.999          0.99315         177.674
61.52                   0.999692        -175.545      3.00198e-66        -179.999      3.00198e-66        -179.999         0.993237         177.712
61.53                   0.999687        -175.546      3.00198e-66        -179.999      3.00198e-66        -179.999         0.993443         177.752
61.54                   0.999682        -175.547      3.00198e-66        -179.999      3.00198e-66        -179.999         0.993778          177.79
61.55                   0.999678        -175.548      3.00198e-66        -179.999      3.00198e-66        -179.999         0.994245         177.826
61.56                   0.999674        -175.549      3.00198e-66        -179.999      3.00198e-66        -179.999         0.994828         177.857
61.57                   0.999671         -175.55      3.00198e-66        -179.999      3.00198e-66        -179.999           0.9955         177.881
61.58                   0.999667        -175.551      3.00198e-66        -179.999      3.00198e-66        -179.999         0.996225         177.897
61.59                   0.999664        -175.552      3.00198e-66        -179.999      3.00198e-66        -179.999         0.996963         177.905
61.6                    0.999661        -175.553      3.00198e-66        -179.999      3.00198e-66        -179.999         0.997677         177.906
61.61                   0.999658        -175.554      3.00198e-66        -179.999      3.00198e-66        -179.999         0.998339           177.9
61.62                   0.999656        -175.555      3.00198e-66        -179.999      3.00198e-66        -179.999         0.998931         177.889
61.63                   0.999653        -175.556      3.00198e-66        -179.999      3.00198e-66        -179.999         0.999445         177.875
61.64                   0.999651        -175.557      3.00198e-66        -179.999      3.00198e-66        -179.999         0.999881         177.858
61.65                   0.999649        -175.557      3.00198e-66        -179.999      3.00198e-66        -179.999                1          177.84
61.66                   0.999647        -175.558      3.00198e-66        -179.999      3.00198e-66        -179.999                1         177.822
61.67                   0.999646        -175.559      3.00198e-66        -179.999      3.00198e-66        -179.999                1         177.804
61.68                   0.999644         -175.56      3.00198e-66        -179.999      3.00198e-66        -179.999                1         177.787
61.69                   0.999643        -175.561      3.00198e-66        -179.999      3.00198e-66        -179.999                1         177.771
61.7                    0.999642        -175.562      3.00198e-66        -179.999      3.00198e-66        -179.999                1         177.755
61.71                   0.999641        -175.563      3.00198e-66        -179.999      3.00198e-66        -179.999                1         177.741
61.72                   0.999641        -175.563      3.00198e-66        -179.999      3.00198e-66        -179.999                1         177.728
61.73                    0.99964        -175.564      3.00198e-66        -179.999      3.00198e-66        -179.999                1         177.716
61.74                    0.99964        -175.565      3.00198e-66        -179.999      3.00198e-66        -179.999                1         177.704
61.75                   0.999639        -175.566      3.00198e-66        -179.999      3.00198e-66        -179.999                1         177.694
61.76                   0.999639        -175.567      3.00198e-66        -179.999      3.00198e-66        -179.999                1         177.684
61.77                   0.999639        -175.567      3.00198e-66        -179.999      3.00198e-66        -179.999                1         177.675
61.78                   0.999639        -175.568      3.00198e-66        -179.999      3.00198e-66        -179.999                1         177.667
61.79                    0.99964        -175.569      3.00198e-66        -179.999      3.00198e-66        -179.999                1          177.66
61.8                     0.99964         -175.57      3.00198e-66        -179.999      3.00198e-66        -179.999                1         177.653
61.81                    0.99964         -175.57      3.00198e-66        -179.999      3.00198e-66        -179.999                1         177.647
61.82                   0.999641        -175.571      3.00199e-66        -179.999      3.00199e-66        -179.999                1         177.641
61.83                   0.999642        -175.572      3.00199e-66        -179.999      3.00199e-66        -179.999                1         177.636
61.84                   0.999642        -175.572      3.00199e-66        -179.999      3.00199e-66        -179.999                1         177.631
61.85                   0.999643        -175.573      3.00199e-66        -179.999      3.00199e-66        -179.999                1         177.626
61.86                   0.999644        -175.574      3.00199e-66        -179.999      3.00199e-66        -179.999                1         177.622
61.87                   0.999646        -175.574      3.00199e-66        -179.999      3.00199e-66        -179.999                1         177.618
61.88                   0.999647        -175.575      3.00199e-66        -179.999      3.00199e-66        -179.999                1         177.615
61.89                   0.999648        -175.575      3.00199e-66        -179.999      3.00199e-66        -179.999                1         177.611
61.9                    0.999649        -175.576      3.00199e-66        -179.999      3.00199e-66        -179.999                1         177.608
61.91                   0.999651        -175.577      3.00199e-66        -179.999      3.00199e-66        -179.999                1         177.605
61.92                   0.999652        -175.577      3.00199e-66        -179.999      3.00199e-66        -179.999                1         177.603
61.93                   0.999654        -175.578      3.00199e-66        -179.999      3.00199e-66        -179.999                1           177.6
61.94                   0.999656        -175.578      3.00199e-66        -179.999      3.00199e-66        -179.999                1         177.598
61.95                   0.999657        -175.579      3.00199e-66        -179.999      3.00199e-66        -179.999                1         177.596
61.96                   0.999659        -175.579      3.00199e-66        -179.999      3.00199e-66        -179.999                1         177.594
61.97                   0.999661         -175.58      3.00199e-66        -179.999      3.00199e-66        -179.999                1         177.592