! TOUCHSTONE file generated by CST MICROWAVE STUDIO
! Date and time: Sat Feb 17 15:53:12 2024
! Project name: metal_rotado.cst
! Parameters = {PX=1.25; angX=2; angY=2}
! Header version: 2018
! Port assignment regex: !\s*Touchstone port\s*([0-9]+)\s*=\s*(CST MWS port|CST DS port)\s*([0-9]+|Zmin|Zmax)\s*\(\"(.*)\"\)(\s*mode\s*([0-9]+))?.*
! Touchstone port assignment:
! Touchstone port 1 = CST MWS port 1 ("")
! Touchstone port 2 = CST MWS port 2 ("")
# GHz S MA R 376.7
60                             1        -165.933      1.60603e-65         179.985      1.60603e-65         179.985                1         157.777
60.01                          1          -166.2      1.60602e-65         179.983      1.60602e-65         179.983                1         157.128
60.02                          1        -166.627      1.60602e-65         179.981      1.60602e-65         179.981                1         156.708
60.03                          1        -167.447      1.50564e-65         179.979      1.50564e-65         179.979                1         156.345
60.04                   0.999999        -169.786      1.50566e-65         179.974      1.50566e-65         179.974                1         155.996
60.05                    0.99706          105.89                0               0                0               0                1         155.644
60.06                    0.99998        -159.951      1.40514e-65         179.991      1.40514e-65         179.991         0.999941         155.282
60.07                   0.999994        -162.616      1.40518e-65         179.986      1.40518e-65         179.986         0.999898         154.902
60.08                   0.999997        -163.497      1.40518e-65         179.983      1.40518e-65         179.983         0.999867         154.502
60.09                   0.999999        -163.948      1.40518e-65         179.982      1.40518e-65         179.982         0.999845         154.076
60.1                    0.999999        -164.229      1.40517e-65          179.98      1.40517e-65          179.98          0.99983         153.622
60.11                          1        -164.426      1.40516e-65         179.979      1.40516e-65         179.979         0.999821         153.135
60.12                          1        -164.575      1.40515e-65         179.978      1.40515e-65         179.978         0.999815          152.61
60.13                          1        -164.694      1.40514e-65         179.977      1.40514e-65         179.977         0.999813         152.042
60.14                          1        -164.794      1.40513e-65         179.975      1.40513e-65         179.975         0.999813         151.425
60.15                   0.999999        -164.881      1.40512e-65         179.974      1.40512e-65         179.974         0.999816         150.752
60.16                   0.999999        -164.958       1.4051e-65         179.973       1.4051e-65         179.973          0.99982         150.015
60.17                   0.999999        -165.028      1.40508e-65         179.971      1.40508e-65         179.971         0.999826         149.204
60.18                   0.999999        -165.093      1.40506e-65          179.97      1.40506e-65          179.97         0.999833         148.306
60.19                   0.999998        -165.153      1.40503e-65         179.968      1.40503e-65         179.968         0.999841         147.307
60.2                    0.999998        -165.211        1.405e-65         179.966        1.405e-65         179.966          0.99985          146.19
60.21                   0.999997        -165.266      1.30461e-65         179.964      1.30461e-65         179.964         0.999859          144.93
60.22                   0.999996        -165.319      1.30458e-65         179.961      1.30458e-65         179.961          0.99987         143.499
60.23                   0.999996        -165.371      1.30453e-65         179.959      1.30453e-65         179.959         0.999882         141.861
60.24                   0.999995        -165.422      1.30448e-65         179.956      1.30448e-65         179.956         0.999894         139.967
60.25                   0.999994        -165.472      1.30442e-65         179.952      1.30442e-65         179.952         0.999908         137.752
60.26                   0.999993        -165.522      1.30434e-65         179.948      1.30434e-65         179.948         0.999923          135.13
60.27                   0.999991        -165.571      1.30423e-65         179.944      1.30423e-65         179.944          0.99994          131.98
60.28                    0.99999         -165.62       1.3041e-65         179.939       1.3041e-65         179.939         0.999959         128.132
60.29                   0.999988        -165.668      1.30393e-65         179.933      1.30393e-65         179.933         0.999981         123.334
60.3                    0.999987        -165.717      1.30369e-65         179.927      1.30369e-65         179.927                1         117.213
60.31                   0.999986        -165.766      1.30336e-65         179.921      1.30336e-65         179.921                1         109.184
60.32                   0.999985        -165.815      1.30288e-65         179.915      1.30288e-65         179.915                1         98.3235
60.33                   0.999985        -165.864       1.3022e-65         179.915       1.3022e-65         179.915                1         83.1579
60.34                   0.999988        -165.914                0               0                0               0                1         61.4965
60.35                   0.999995        -165.964      1.30029e-65         179.969      1.30029e-65         179.969                1         30.9769
60.36                          1        -166.014      1.19995e-65        -179.957      1.19995e-65        -179.957                1         -7.9752
60.37                    1.00001        -166.066                0               0               -0             180         0.999992        -48.4327
60.38                    1.00002        -166.119      1.20198e-65         -179.86      1.20198e-65         -179.86         0.999899         -81.923
60.39                    1.00002        -166.172      1.20298e-65        -179.864      1.20298e-65        -179.864         0.999853        -106.159
60.4                     1.00003        -166.226      1.20362e-65        -179.878      1.20362e-65        -179.878         0.999838        -123.101
60.41                    1.00003        -166.281      1.20401e-65        -179.893      1.20401e-65        -179.893         0.999838        -135.125
60.42                    1.00003        -166.337      1.20425e-65        -179.906      1.20425e-65        -179.906         0.999844        -143.924
60.43                    1.00002        -166.394       1.2044e-65        -179.918       1.2044e-65        -179.918         0.999852         -150.57
60.44                    1.00002        -166.451      1.20449e-65        -179.927      1.20449e-65        -179.927         0.999861        -155.736
60.45                    1.00002         -166.51      1.20456e-65        -179.934      1.20456e-65        -179.934         0.999869        -159.851
60.46                    1.00002         -166.57       1.2046e-65        -179.941       1.2046e-65        -179.941         0.999877        -163.199
60.47                    1.00002        -166.631      1.20464e-65        -179.946      1.20464e-65        -179.946         0.999885        -165.971
60.48                    1.00002        -166.693      1.20466e-65        -179.951      1.20466e-65        -179.951         0.999892        -168.303
60.49                    1.00002        -166.757      1.20467e-65        -179.955      1.20467e-65        -179.955         0.999899        -170.289
60.5                     1.00002        -166.822      1.20469e-65        -179.958      1.20469e-65        -179.958         0.999905        -172.002
60.51                    1.00001        -166.888      1.20469e-65        -179.961      1.20469e-65        -179.961         0.999911        -173.492
60.52                    1.00001        -166.956       1.2047e-65        -179.964       1.2047e-65        -179.964         0.999916        -174.801
60.53                    1.00001        -167.026       1.2047e-65        -179.967       1.2047e-65        -179.967         0.999921        -175.959
60.54                    1.00001        -167.097      1.20471e-65        -179.969      1.20471e-65        -179.969         0.999925        -176.991
60.55                    1.00001         -167.17      1.20471e-65        -179.971      1.20471e-65        -179.971         0.999929        -177.917
60.56                    1.00001        -167.245      1.20471e-65        -179.972      1.20471e-65        -179.972         0.999933        -178.751
60.57                    1.00001        -167.322      1.20471e-65        -179.974      1.20471e-65        -179.974         0.999937        -179.508
60.58                    1.00001          -167.4      1.20471e-65        -179.976      1.20471e-65        -179.976          0.99994         179.803
60.59                    1.00001        -167.481      1.20471e-65        -179.977      1.20471e-65        -179.977         0.999943         179.173
60.6                     1.00001        -167.564      1.20472e-65        -179.978      1.20472e-65        -179.978         0.999946         178.595
60.61                    1.00001         -167.65      1.20472e-65         -179.98      1.20472e-65         -179.98         0.999948         178.062
60.62                    1.00001        -167.737      1.20472e-65        -179.981      1.20472e-65        -179.981         0.999951          177.57
60.63                    1.00001        -167.828      1.20472e-65        -179.982      1.20472e-65        -179.982         0.999953         177.114
60.64                          1        -167.921      1.20472e-65        -179.983      1.20472e-65        -179.983         0.999955         176.689
60.65                          1        -168.016      1.20472e-65        -179.984      1.20472e-65        -179.984         0.999957         176.294
60.66                          1        -168.115      1.20471e-65        -179.985      1.20471e-65        -179.985         0.999959         175.924
60.67                          1        -168.217      1.20471e-65        -179.986      1.20471e-65        -179.986          0.99996         175.578
60.68                          1        -168.322      1.20471e-65        -179.986      1.20471e-65        -179.986         0.999962         175.253
60.69                          1         -168.43      1.20471e-65        -179.987      1.20471e-65        -179.987         0.999963         174.948
60.7                           1        -168.542      1.20471e-65        -179.988      1.20471e-65        -179.988         0.999964          174.66
60.71                          1        -168.658      1.20471e-65        -179.989      1.20471e-65        -179.989         0.999965         174.388
60.72                          1        -168.778      1.20471e-65         -179.99      1.20471e-65         -179.99         0.999966         174.131
60.73                   0.999999        -168.902      1.20471e-65         -179.99      1.20471e-65         -179.99         0.999967         173.887
60.74                   0.999999        -169.031      1.20471e-65        -179.991      1.20471e-65        -179.991         0.999968         173.656
60.75                   0.999998        -169.164      1.20471e-65        -179.992      1.20471e-65        -179.992         0.999969         173.437
60.76                   0.999998        -169.302      1.20471e-65        -179.992      1.20471e-65        -179.992         0.999969         173.228
60.77                   0.999997        -169.446      1.10432e-65        -179.993      1.10432e-65        -179.993          0.99997          173.03
60.78                   0.999996        -169.595      1.10432e-65        -179.994      1.10432e-65        -179.994          0.99997          172.84
60.79                   0.999996         -169.75      1.10432e-65        -179.994      1.10432e-65        -179.994         0.999971         172.659
60.8                    0.999995        -169.912      1.10432e-65        -179.995      1.10432e-65        -179.995         0.999971         172.486
60.81                   0.999995         -170.08      1.10432e-65        -179.996      1.10432e-65        -179.996         0.999971          172.32
60.82                   0.999994        -170.256      1.10432e-65        -179.996      1.10432e-65        -179.996         0.999972         172.162
60.83                   0.999993        -170.439      1.10432e-65        -179.997      1.10432e-65        -179.997         0.999972          172.01
60.84                   0.999993        -170.631      1.10432e-65        -179.998      1.10432e-65        -179.998         0.999972         171.864
60.85                   0.999992        -170.831      1.10432e-65        -179.998      1.10432e-65        -179.998         0.999972         171.724
60.86                   0.999992        -171.041      1.10432e-65        -179.999      1.10432e-65        -179.999         0.999972         171.589
60.87                   0.999991         -171.26      1.10433e-65            -180      1.10433e-65            -180         0.999972         171.459
60.88                   0.999991        -171.491      1.10433e-65             180      1.10433e-65             180         0.999972         171.334
60.89                    0.99999        -171.734      1.10433e-65         179.999      1.10433e-65         179.999         0.999972         171.214
60.9                    0.999989        -171.989      1.10433e-65         179.998      1.10433e-65         179.998         0.999972         171.097
60.91                   0.999989        -172.258      1.10433e-65         179.998      1.10433e-65         179.998         0.999972         170.985
60.92                   0.999988        -172.542      1.10433e-65         179.997      1.10433e-65         179.997         0.999972         170.877
60.93                   0.999988        -172.842      1.10433e-65         179.996      1.10433e-65         179.996         0.999972         170.772
60.94                   0.999987         -173.16      1.10433e-65         179.995      1.10433e-65         179.995         0.999972         170.671
60.95                   0.999986        -173.497      1.10433e-65         179.994      1.10433e-65         179.994         0.999972         170.573
60.96                   0.999986        -173.855      1.10433e-65         179.993      1.10433e-65         179.993         0.999971         170.478
60.97                   0.999985        -174.236      1.10433e-65         179.992      1.10433e-65         179.992         0.999971         170.386
60.98                   0.999985        -174.643      1.10433e-65         179.991      1.10433e-65         179.991         0.999971         170.296
60.99                   0.999984        -175.078      1.10434e-65          179.99      1.10434e-65          179.99         0.999971          170.21
61                      0.999984        -175.544      1.10434e-65         179.989      1.10434e-65         179.989         0.999971         170.126
61.01                   0.999983        -176.044      1.10434e-65         179.988      1.10434e-65         179.988          0.99997         170.044
61.02                   0.999982        -176.584      1.10434e-65         179.987      1.10434e-65         179.987          0.99997         169.965
61.03                   0.999982        -177.166      1.10434e-65         179.986      1.10434e-65         179.986          0.99997         169.888
61.04                   0.999981        -177.797      1.10434e-65         179.984      1.10434e-65         179.984          0.99997         169.812
61.05                   0.999981        -178.484      1.10434e-65         179.983      1.10434e-65         179.983          0.99997         169.739
61.06                    0.99998        -179.233      1.10434e-65         179.981      1.10434e-65         179.981         0.999969         169.668
61.07                    0.99998         179.946      1.10434e-65         179.979      1.10434e-65         179.979         0.999969         169.599
61.08                    0.99998         179.042      1.10434e-65         179.977      1.10434e-65         179.977         0.999969         169.531
61.09                   0.999979         178.043      1.10434e-65         179.975      1.10434e-65         179.975         0.999969         169.466
61.1                    0.999979         176.932      1.10433e-65         179.973      1.10433e-65         179.973         0.999968         169.401
61.11                   0.999978          175.69      1.10433e-65          179.97      1.10433e-65          179.97         0.999968         169.339
61.12                   0.999978         174.293      1.10433e-65         179.968      1.10433e-65         179.968         0.999968         169.278
61.13                   0.999978         172.709      1.10432e-65         179.964      1.10432e-65         179.964         0.999968         169.218
61.14                   0.999978           170.9      1.10431e-65         179.961      1.10431e-65         179.961         0.999968         169.159
61.15                   0.999978         168.814                0               0                0               0         0.999968         169.102
61.16                   0.999978         166.385      1.10427e-65         179.952      1.10427e-65         179.952         0.999967         169.047
61.17                   0.999978         163.522      1.10425e-65         179.946      1.10425e-65         179.946         0.999967         168.992
61.18                   0.999979         160.102       1.1042e-65          179.94       1.1042e-65          179.94         0.999967         168.939
61.19                    0.99998         155.953      1.10415e-65         179.932      1.10415e-65         179.932         0.999967         168.886
61.2                    0.999982          150.83      1.10406e-65         179.923      1.10406e-65         179.923         0.999967         168.835
61.21                   0.999984         144.372      1.10393e-65         179.912      1.10393e-65         179.912         0.999967         168.785
61.22                   0.999988         136.043      1.00338e-65         179.899      1.00338e-65         179.899         0.999967         168.736
61.23                   0.999993          125.03      1.00309e-65         179.885      1.00309e-65         179.885         0.999966         168.688
61.24                          1         110.126      1.00264e-65         179.871      1.00264e-65         179.871         0.999966         168.641
61.25                    1.00001         89.7078      1.00194e-65         179.864      1.00194e-65         179.864         0.999966         168.594
61.26                    1.00002         62.2549      1.00103e-65         179.877      1.00103e-65         179.877         0.999966         168.549
61.27                    1.00002         28.2479       1.0002e-65         179.923       1.0002e-65         179.923         0.999966         168.504
61.28                    1.00002        -7.71322      9.99978e-66         179.993      9.99978e-66         179.993         0.999966          168.46
61.29                          1        -39.3693      1.00041e-65        -179.951      1.00041e-65        -179.951         0.999966         168.417
61.3                    0.999987        -63.8562      1.00107e-65        -179.921      1.00107e-65        -179.921         0.999966         168.375
61.31                   0.999977        -81.8284      1.00167e-65         -179.91      1.00167e-65         -179.91         0.999966         168.333
61.32                   0.999969        -94.9827      1.00212e-65         -179.91      1.00212e-65         -179.91         0.999966         168.292
61.33                   0.999964         -104.79      1.00246e-65        -179.913      1.00246e-65        -179.913         0.999966         168.252
61.34                    0.99996        -112.284       1.0027e-65        -179.918       1.0027e-65        -179.918         0.999966         168.212
61.35                   0.999958         -118.15      1.00289e-65        -179.923      1.00289e-65        -179.923         0.999966         168.173
61.36                   0.999955        -122.846      1.00303e-65        -179.928      1.00303e-65        -179.928         0.999966         168.135
61.37                   0.999953        -126.678      1.00314e-65        -179.932      1.00314e-65        -179.932         0.999966         168.097
61.38                   0.999952        -129.859      1.00322e-65        -179.936      1.00322e-65        -179.936         0.999966          168.06
61.39                    0.99995        -132.538      1.00329e-65         -179.94      1.00329e-65         -179.94         0.999966         168.023
61.4                    0.999949        -134.824      1.00335e-65        -179.943      1.00335e-65        -179.943         0.999966         167.986
61.41                   0.999947        -136.796       1.0034e-65        -179.946       1.0034e-65        -179.946         0.999966          167.95
61.42                   0.999946        -138.514      1.00344e-65        -179.949      1.00344e-65        -179.949         0.999966         167.915
61.43                   0.999945        -140.025      1.00347e-65        -179.951      1.00347e-65        -179.951         0.999966          167.88
61.44                   0.999943        -141.362       1.0035e-65        -179.953       1.0035e-65        -179.953         0.999966         167.845
61.45                   0.999942        -142.556      1.00352e-65        -179.955      1.00352e-65        -179.955         0.999966         167.811
61.46                   0.999941        -143.627      1.00355e-65        -179.957      1.00355e-65        -179.957         0.999966         167.777
61.47                   0.999939        -144.594      1.00357e-65        -179.958      1.00357e-65        -179.958         0.999967         167.743
61.48                   0.999938        -145.472      1.00358e-65         -179.96      1.00358e-65         -179.96         0.999967          167.71
61.49                   0.999936        -146.272       1.0036e-65        -179.961       1.0036e-65        -179.961         0.999967         167.677
61.5                    0.999935        -147.006      1.00361e-65        -179.962      1.00361e-65        -179.962         0.999967         167.644
61.51                   0.999933         -147.68      1.00362e-65        -179.964      1.00362e-65        -179.964         0.999967         167.611
61.52                   0.999932        -148.303      1.00364e-65        -179.965      1.00364e-65        -179.965         0.999967         167.579
61.53                    0.99993         -148.88      9.03281e-66        -179.966      9.03281e-66        -179.966         0.999967         167.546
61.54                   0.999928        -149.417       9.0329e-66        -179.967       9.0329e-66        -179.967         0.999967         167.514
61.55                   0.999927        -149.917      9.03297e-66        -179.968      9.03297e-66        -179.968         0.999967         167.482
61.56                   0.999925        -150.386      9.03304e-66        -179.969      9.03304e-66        -179.969         0.999967          167.45
61.57                   0.999923        -150.825      9.03311e-66        -179.969      9.03311e-66        -179.969         0.999967         167.417
61.58                    0.99992        -151.239      9.03317e-66         -179.97      9.03317e-66         -179.97         0.999968         167.385
61.59                   0.999918        -151.629      9.03323e-66        -179.971      9.03323e-66        -179.971         0.999968         167.352
61.6                    0.999916        -151.999      9.03328e-66        -179.972      9.03328e-66        -179.972         0.999968         167.319
61.61                   0.999913        -152.349      9.03333e-66        -179.972      9.03333e-66        -179.972         0.999968         167.286
61.62                    0.99991        -152.683      9.03337e-66        -179.973      9.03337e-66        -179.973         0.999968         167.252
61.63                   0.999907        -153.001      9.03342e-66        -179.974      9.03342e-66        -179.974         0.999968         167.218
61.64                   0.999904        -153.305      9.03346e-66        -179.974      9.03346e-66        -179.974         0.999968         167.183
61.65                   0.999901        -153.597       9.0335e-66        -179.975       9.0335e-66        -179.975         0.999968         167.148
61.66                   0.999897        -153.878      9.03353e-66        -179.975      9.03353e-66        -179.975         0.999968         167.111
61.67                   0.999893        -154.149      9.03357e-66        -179.976      9.03357e-66        -179.976         0.999968         167.073
61.68                   0.999888        -154.411       9.0336e-66        -179.976       9.0336e-66        -179.976         0.999968         167.033
61.69                   0.999883        -154.665      9.03363e-66        -179.977      9.03363e-66        -179.977         0.999968         166.991
61.7                    0.999877        -154.913      9.03366e-66        -179.978      9.03366e-66        -179.978         0.999969         166.947
61.71                    0.99987        -155.155      9.03369e-66        -179.978      9.03369e-66        -179.978         0.999969           166.9
61.72                   0.999862        -155.393      9.03372e-66        -179.979      9.03372e-66        -179.979         0.999969         166.848
61.73                   0.999853        -155.627      9.03374e-66        -179.979      9.03374e-66        -179.979         0.999969         166.792
61.74                   0.999843        -155.859      9.03377e-66         -179.98      9.03377e-66         -179.98         0.999969         166.729
61.75                   0.999829         -156.09      9.03379e-66         -179.98      9.03379e-66         -179.98         0.999969         166.658
61.76                   0.999813        -156.321      9.03382e-66        -179.981      9.03382e-66        -179.981         0.999969         166.574
61.77                   0.999792        -156.554      9.03384e-66        -179.981      9.03384e-66        -179.981         0.999968         166.473
61.78                   0.999764         -156.79      9.03386e-66        -179.982      9.03386e-66        -179.982         0.999968         166.347
61.79                   0.999725        -157.032      9.03387e-66        -179.983      9.03387e-66        -179.983         0.999968         166.182
61.8                    0.999668        -157.283      9.03389e-66        -179.984      9.03389e-66        -179.984         0.999968         165.948
61.81                   0.999589        -157.546      9.03389e-66        -179.985      9.03389e-66        -179.985         0.999969         165.586
61.82                   0.999544         -157.83      8.03011e-66        -179.987      8.03011e-66        -179.987         0.999971         164.927
61.83                   0.999762        -158.133      8.03002e-66         -179.99      8.03002e-66         -179.99         0.999984         163.298
61.84                   0.999997        -158.441                0               0                0               0                1         151.578
61.85                    1.00003        -158.778      7.02684e-66         -179.97      7.02684e-66         -179.97                1         174.175
61.86                    1.00001        -159.161                0               0                0               0                1         169.894
61.87                   0.999977        -159.602      7.02672e-66        -179.982      7.02672e-66        -179.982         0.999985         168.789
61.88                   0.999945         -160.12      7.02674e-66        -179.984      7.02674e-66        -179.984          0.99998         168.274
61.89                   0.999912         -160.75      7.02677e-66        -179.986      7.02677e-66        -179.986         0.999978         167.972
61.9                    0.999875        -161.542      7.02682e-66        -179.988      7.02682e-66        -179.988         0.999976          167.77
61.91                   0.999831        -162.588      7.02689e-66         -179.99      7.02689e-66         -179.99         0.999975         167.624
61.92                    0.99977        -164.061      6.02313e-66        -179.993      6.02313e-66        -179.993         0.999974         167.512
61.93                   0.999675        -166.334      6.02325e-66        -179.998      6.02325e-66        -179.998         0.999974         167.421
61.94                   0.999498         -170.38      6.02341e-66         179.994      6.02341e-66         179.994         0.999973         167.347
61.95                   0.999035        -179.789      6.02357e-66         179.975      6.02357e-66         179.975         0.999974         167.283
61.96                   0.996185         135.606      6.02015e-66         179.896      6.02015e-66         179.896         0.999975         167.229
61.97                   0.999999         -101.81                0               0                0               0         0.999992         167.182