! TOUCHSTONE file generated by CST MICROWAVE STUDIO
! Date and time: Sat Feb 17 12:41:10 2024
! Project name: metal_rotado.cst
! Parameters = {angX=2; angY=2}
! Header version: 2018
! Port assignment regex: !\s*Touchstone port\s*([0-9]+)\s*=\s*(CST MWS port|CST DS port)\s*([0-9]+|Zmin|Zmax)\s*\(\"(.*)\"\)(\s*mode\s*([0-9]+))?.*
! Touchstone port assignment:
! Touchstone port 1 = CST MWS port 1 ("")
! Touchstone port 2 = CST MWS port 2 ("")
# GHz S MA R 376.7
60                      0.999998        -179.598      3.99914e-66             180      3.99914e-66             180         0.999908        -179.595
60.01                   0.999995        -179.598      3.99914e-66             180      3.99914e-66             180         0.999907        -179.595
60.02                   0.999993        -179.599      3.99914e-66             180      3.99914e-66             180         0.999906        -179.595
60.03                    0.99999        -179.599      3.99914e-66             180      3.99914e-66             180         0.999906        -179.595
60.04                   0.999987        -179.599      3.99914e-66             180      3.99914e-66             180         0.999905        -179.595
60.05                   0.999984        -179.599      3.99914e-66             180      3.99914e-66             180         0.999904        -179.595
60.06                   0.999982        -179.599      3.99914e-66             180      3.99914e-66             180         0.999904        -179.595
60.07                   0.999979          -179.6      3.99914e-66             180      3.99914e-66             180         0.999903        -179.595
60.08                   0.999976          -179.6      3.99914e-66             180      3.99914e-66             180         0.999902        -179.595
60.09                   0.999974          -179.6      3.99914e-66             180      3.99914e-66             180         0.999902        -179.595
60.1                    0.999971          -179.6      3.99914e-66             180      3.99914e-66             180         0.999901        -179.596
60.11                   0.999969          -179.6      3.99914e-66             180      3.99914e-66             180           0.9999        -179.596
60.12                   0.999966          -179.6      3.99914e-66             180      3.99914e-66             180           0.9999        -179.596
60.13                   0.999963        -179.601      3.99914e-66             180      3.99914e-66             180         0.999899        -179.596
60.14                   0.999961        -179.601      3.99914e-66             180      3.99914e-66             180         0.999899        -179.596
60.15                   0.999958        -179.601      3.99914e-66             180      3.99914e-66             180         0.999898        -179.596
60.16                   0.999956        -179.601      3.99914e-66             180      3.99914e-66             180         0.999898        -179.596
60.17                   0.999953        -179.601      3.99914e-66             180      3.99914e-66             180         0.999897        -179.596
60.18                   0.999951        -179.601      3.99914e-66             180      3.99914e-66             180         0.999897        -179.596
60.19                   0.999948        -179.602      3.99914e-66             180      3.99914e-66             180         0.999896        -179.596
60.2                    0.999946        -179.602      3.99914e-66             180      3.99914e-66             180         0.999896        -179.596
60.21                   0.999944        -179.602      3.99914e-66             180      3.99914e-66             180         0.999895        -179.596
60.22                   0.999941        -179.602      3.99914e-66             180      3.99914e-66             180         0.999895        -179.596
60.23                   0.999939        -179.602      3.99914e-66             180      3.99914e-66             180         0.999894        -179.596
60.24                   0.999937        -179.602      3.99914e-66             180      3.99914e-66             180         0.999894        -179.596
60.25                   0.999934        -179.603      3.99914e-66             180      3.99914e-66             180         0.999893        -179.596
60.26                   0.999932        -179.603      3.99914e-66             180      3.99914e-66             180         0.999893        -179.596
60.27                    0.99993        -179.603      3.99914e-66             180      3.99914e-66             180         0.999893        -179.596
60.28                   0.999927        -179.603      3.99914e-66             180      3.99914e-66             180         0.999892        -179.596
60.29                   0.999925        -179.603      3.99914e-66             180      3.99914e-66             180         0.999892        -179.596
60.3                    0.999923        -179.603      3.99914e-66             180      3.99914e-66             180         0.999891        -179.596
60.31                   0.999921        -179.603      3.99914e-66             180      3.99914e-66             180         0.999891        -179.596
60.32                   0.999918        -179.604      3.99914e-66             180      3.99914e-66             180         0.999891        -179.596
60.33                   0.999916        -179.604      3.99914e-66             180      3.99914e-66             180          0.99989        -179.596
60.34                   0.999914        -179.604      3.99914e-66             180      3.99914e-66             180          0.99989        -179.596
60.35                   0.999912        -179.604      3.99914e-66             180      3.99914e-66             180          0.99989        -179.596
60.36                    0.99991        -179.604      3.99914e-66             180      3.99914e-66             180          0.99989        -179.596
60.37                   0.999908        -179.604      3.99914e-66             180      3.99914e-66             180         0.999889        -179.596
60.38                   0.999906        -179.604      3.99914e-66             180      3.99914e-66             180         0.999889        -179.596
60.39                   0.999904        -179.604      3.99914e-66             180      3.99914e-66             180         0.999889        -179.596
60.4                    0.999902        -179.604      3.99914e-66             180      3.99914e-66             180         0.999888        -179.596
60.41                     0.9999        -179.605      3.99914e-66             180      3.99914e-66             180         0.999888        -179.596
60.42                   0.999898        -179.605      3.99914e-66             180      3.99914e-66             180         0.999888        -179.596
60.43                   0.999896        -179.605      3.99914e-66             180      3.99914e-66             180         0.999888        -179.596
60.44                   0.999894        -179.605      3.99914e-66             180      3.99914e-66             180         0.999888        -179.596
60.45                   0.999892        -179.605      3.99914e-66             180      3.99914e-66             180         0.999887        -179.596
60.46                    0.99989        -179.605      3.99914e-66             180      3.99914e-66             180         0.999887        -179.596
60.47                   0.999888        -179.605      3.99914e-66             180      3.99914e-66             180         0.999887        -179.596
60.48                   0.999886        -179.605      3.99914e-66             180      3.99914e-66             180         0.999887        -179.596
60.49                   0.999885        -179.605      3.99914e-66             180      3.99914e-66             180         0.999887        -179.596
60.5                    0.999883        -179.605      3.99914e-66             180      3.99914e-66             180         0.999887        -179.596
60.51                   0.999881        -179.606      3.99914e-66             180      3.99914e-66             180         0.999887        -179.596
60.52                   0.999879        -179.606      3.99914e-66             180      3.99914e-66             180         0.999887        -179.596
60.53                   0.999877        -179.606      3.99914e-66             180      3.99914e-66             180         0.999886        -179.596
60.54                   0.999876        -179.606      3.99914e-66             180      3.99914e-66             180         0.999886        -179.596
60.55                   0.999874        -179.606      3.99914e-66             180      3.99914e-66             180         0.999886        -179.596
60.56                   0.999872        -179.606      3.99914e-66             180      3.99914e-66             180         0.999886        -179.596
60.57                   0.999871        -179.606      3.99914e-66             180      3.99914e-66             180         0.999886        -179.596
60.58                   0.999869        -179.606      3.99914e-66             180      3.99914e-66             180         0.999886        -179.596
60.59                   0.999867        -179.606      3.99914e-66             180      3.99914e-66             180         0.999886        -179.596
60.6                    0.999866        -179.606      2.99936e-66             180      2.99936e-66             180         0.999886        -179.596
60.61                   0.999864        -179.606      2.99936e-66             180      2.99936e-66             180         0.999886        -179.596
60.62                   0.999863        -179.606      2.99936e-66             180      2.99936e-66             180         0.999886        -179.595
60.63                   0.999861        -179.606      2.99936e-66             180      2.99936e-66             180         0.999886        -179.595
60.64                    0.99986        -179.606      2.99936e-66             180      2.99936e-66             180         0.999886        -179.595
60.65                   0.999858        -179.606      2.99936e-66             180      2.99936e-66             180         0.999886        -179.595
60.66                   0.999857        -179.607      2.99936e-66             180      2.99936e-66             180         0.999887        -179.595
60.67                   0.999855        -179.607      2.99936e-66             180      2.99936e-66             180         0.999887        -179.595
60.68                   0.999854        -179.607      2.99936e-66             180      2.99936e-66             180         0.999887        -179.595
60.69                   0.999853        -179.607      2.99936e-66             180      2.99936e-66             180         0.999887        -179.595
60.7                    0.999851        -179.607      2.99936e-66             180      2.99936e-66             180         0.999887        -179.595
60.71                    0.99985        -179.607      2.99936e-66             180      2.99936e-66             180         0.999887        -179.595
60.72                   0.999849        -179.607      2.99936e-66             180      2.99936e-66             180         0.999887        -179.595
60.73                   0.999847        -179.607      2.99936e-66             180      2.99936e-66             180         0.999887        -179.595
60.74                   0.999846        -179.607      2.99936e-66             180      2.99936e-66             180         0.999888        -179.595
60.75                   0.999845        -179.607      2.99936e-66             180      2.99936e-66             180         0.999888        -179.595
60.76                   0.999844        -179.607      2.99936e-66             180      2.99936e-66             180         0.999888        -179.595
60.77                   0.999842        -179.607      2.99936e-66             180      2.99936e-66             180         0.999888        -179.594
60.78                   0.999841        -179.607      2.99936e-66             180      2.99936e-66             180         0.999888        -179.594
60.79                    0.99984        -179.607      2.99936e-66             180      2.99936e-66             180         0.999888        -179.594
60.8                    0.999839        -179.607      2.99936e-66             180      2.99936e-66             180         0.999889        -179.594
60.81                   0.999838        -179.607      2.99936e-66             180      2.99936e-66             180         0.999889        -179.594
60.82                   0.999837        -179.607      2.99936e-66             180      2.99936e-66             180         0.999889        -179.594
60.83                   0.999836        -179.607      2.99936e-66             180      2.99936e-66             180         0.999889        -179.594
60.84                   0.999835        -179.607      2.99936e-66             180      2.99936e-66             180          0.99989        -179.594
60.85                   0.999834        -179.607      2.99936e-66             180      2.99936e-66             180          0.99989        -179.594
60.86                   0.999833        -179.607      2.99936e-66             180      2.99936e-66             180          0.99989        -179.594
60.87                   0.999832        -179.607      2.99936e-66             180      2.99936e-66             180         0.999891        -179.594
60.88                   0.999831        -179.607      2.99936e-66             180      2.99936e-66             180         0.999891        -179.593
60.89                    0.99983        -179.607      2.99936e-66             180      2.99936e-66             180         0.999891        -179.593
60.9                    0.999829        -179.607      2.99936e-66             180      2.99936e-66             180         0.999892        -179.593
60.91                   0.999828        -179.607      2.99936e-66             180      2.99936e-66             180         0.999892        -179.593
60.92                   0.999827        -179.607      2.99936e-66             180      2.99936e-66             180         0.999892        -179.593
60.93                   0.999827        -179.607      2.99936e-66             180      2.99936e-66             180         0.999893        -179.593
60.94                   0.999826        -179.607      2.99936e-66             180      2.99936e-66             180         0.999893        -179.593
60.95                   0.999825        -179.606      2.99936e-66             180      2.99936e-66             180         0.999893        -179.593
60.96                   0.999824        -179.606      2.99936e-66             180      2.99936e-66             180         0.999894        -179.592
60.97                   0.999824        -179.606      2.99936e-66             180      2.99936e-66             180         0.999894        -179.592
60.98                   0.999823        -179.606      2.99936e-66             180      2.99936e-66             180         0.999895        -179.592
60.99                   0.999822        -179.606      2.99936e-66             180      2.99936e-66             180         0.999895        -179.592
61                      0.999822        -179.606      2.99936e-66             180      2.99936e-66             180         0.999896        -179.592
61.01                   0.999821        -179.606      2.99936e-66             180      2.99936e-66             180         0.999896        -179.592
61.02                    0.99982        -179.606      2.99936e-66             180      2.99936e-66             180         0.999896        -179.592
61.03                    0.99982        -179.606      2.99936e-66             180      2.99936e-66             180         0.999897        -179.591
61.04                   0.999819        -179.606      2.99936e-66             180      2.99936e-66             180         0.999897        -179.591
61.05                   0.999819        -179.606      2.99936e-66             180      2.99936e-66             180         0.999898        -179.591
61.06                   0.999818        -179.606      2.99936e-66             180      2.99936e-66             180         0.999898        -179.591
61.07                   0.999818        -179.606      2.99936e-66             180      2.99936e-66             180         0.999899        -179.591
61.08                   0.999817        -179.606      2.99936e-66             180      2.99936e-66             180         0.999899        -179.591
61.09                   0.999817        -179.605      2.99936e-66             180      2.99936e-66             180           0.9999        -179.591
61.1                    0.999817        -179.605      2.99936e-66             180      2.99936e-66             180           0.9999         -179.59
61.11                   0.999816        -179.605      2.99936e-66             180      2.99936e-66             180         0.999901         -179.59
61.12                   0.999816        -179.605      2.99936e-66             180      2.99936e-66             180         0.999901         -179.59
61.13                   0.999816        -179.605      2.99936e-66             180      2.99936e-66             180         0.999902         -179.59
61.14                   0.999815        -179.605      2.99936e-66             180      2.99936e-66             180         0.999903         -179.59
61.15                   0.999815        -179.605      2.99936e-66             180      2.99936e-66             180         0.999903        -179.589
61.16                   0.999815        -179.605      2.99936e-66             180      2.99936e-66             180         0.999904        -179.589
61.17                   0.999814        -179.605      2.99936e-66             180      2.99936e-66             180         0.999904        -179.589
61.18                   0.999814        -179.604      2.99936e-66             180      2.99936e-66             180         0.999905        -179.589
61.19                   0.999814        -179.604      2.99936e-66             180      2.99936e-66             180         0.999905        -179.589
61.2                    0.999814        -179.604                0               0                0               0         0.999906        -179.589
61.21                   0.999814        -179.604      2.99936e-66             180      2.99936e-66             180         0.999907        -179.588
61.22                   0.999814        -179.604      2.99936e-66             180      2.99936e-66             180         0.999907        -179.588
61.23                   0.999814        -179.604      2.99936e-66             180      2.99936e-66             180         0.999908        -179.588
61.24                   0.999814        -179.604      2.99936e-66             180      2.99936e-66             180         0.999908        -179.588
61.25                   0.999813        -179.603      2.99936e-66             180      2.99936e-66             180         0.999909        -179.588
61.26                   0.999813        -179.603      2.99936e-66             180      2.99936e-66             180          0.99991        -179.587
61.27                   0.999813        -179.603      2.99936e-66             180      2.99936e-66             180          0.99991        -179.587
61.28                   0.999814        -179.603      2.99936e-66             180      2.99936e-66             180         0.999911        -179.587
61.29                   0.999814        -179.603      2.99936e-66             180      2.99936e-66             180         0.999912        -179.587
61.3                    0.999814        -179.603      2.99936e-66             180      2.99936e-66             180         0.999912        -179.586
61.31                   0.999814        -179.602      2.99936e-66             180      2.99936e-66             180         0.999913        -179.586
61.32                   0.999814        -179.602      2.99936e-66             180      2.99936e-66             180         0.999914        -179.586
61.33                   0.999814        -179.602      2.99936e-66             180      2.99936e-66             180         0.999914        -179.586
61.34                   0.999814        -179.602      2.99936e-66             180      2.99936e-66             180         0.999915        -179.585
61.35                   0.999814        -179.602      2.99936e-66             180      2.99936e-66             180         0.999916        -179.585
61.36                   0.999815        -179.601      2.99936e-66             180      2.99936e-66             180         0.999916        -179.585
61.37                   0.999815        -179.601      2.99936e-66             180      2.99936e-66             180         0.999917        -179.585
61.38                   0.999815        -179.601      2.99936e-66             180      2.99936e-66             180         0.999918        -179.584
61.39                   0.999815        -179.601      2.99936e-66             180      2.99936e-66             180         0.999919        -179.584
61.4                    0.999816        -179.601      2.99936e-66             180      2.99936e-66             180         0.999919        -179.584
61.41                   0.999816          -179.6      2.99936e-66             180      2.99936e-66             180          0.99992        -179.584
61.42                   0.999816          -179.6      2.99936e-66             180      2.99936e-66             180         0.999921        -179.583
61.43                   0.999817          -179.6      2.99936e-66             180      2.99936e-66             180         0.999921        -179.583
61.44                   0.999817          -179.6      2.99936e-66             180      2.99936e-66             180         0.999922        -179.583
61.45                   0.999818        -179.599      2.99936e-66             180      2.99936e-66             180         0.999923        -179.583
61.46                   0.999818        -179.599      2.99936e-66             180      2.99936e-66             180         0.999924        -179.582
61.47                   0.999819        -179.599      2.99936e-66             180      2.99936e-66             180         0.999924        -179.582
61.48                   0.999819        -179.599      2.99936e-66             180      2.99936e-66             180         0.999925        -179.582
61.49                    0.99982        -179.598      2.99936e-66             180      2.99936e-66             180         0.999926        -179.581
61.5                     0.99982        -179.598      2.99936e-66             180      2.99936e-66             180         0.999927        -179.581
61.51                   0.999821        -179.598      2.99936e-66             180      2.99936e-66             180         0.999927        -179.581
61.52                   0.999821        -179.598      2.99936e-66             180      2.99936e-66             180         0.999928        -179.581
61.53                   0.999822        -179.597      2.99936e-66             180      2.99936e-66             180         0.999929         -179.58
61.54                   0.999823        -179.597      2.99936e-66             180      2.99936e-66             180          0.99993         -179.58
61.55                   0.999823        -179.597      2.99936e-66             180      2.99936e-66             180          0.99993         -179.58
61.56                   0.999824        -179.596      2.99936e-66             180      2.99936e-66             180         0.999931        -179.579
61.57                   0.999825        -179.596      2.99936e-66             180      2.99936e-66             180         0.999932        -179.579
61.58                   0.999825        -179.596      2.99936e-66             180      2.99936e-66             180         0.999933        -179.579
61.59                   0.999826        -179.596      2.99936e-66             180      2.99936e-66             180         0.999934        -179.578
61.6                    0.999827        -179.595      2.99936e-66             180      2.99936e-66             180         0.999934        -179.578
61.61                   0.999828        -179.595      2.99936e-66             180      2.99936e-66             180         0.999935        -179.578
61.62                   0.999828        -179.595      2.99936e-66             180      2.99936e-66             180         0.999936        -179.577
61.63                   0.999829        -179.594      2.99936e-66             180      2.99936e-66             180         0.999937        -179.577
61.64                    0.99983        -179.594      2.99936e-66             180      2.99936e-66             180         0.999937        -179.577
61.65                   0.999831        -179.594      2.99936e-66             180      2.99936e-66             180         0.999938        -179.576
61.66                   0.999832        -179.593      2.99936e-66             180      2.99936e-66             180         0.999939        -179.576
61.67                   0.999833        -179.593      2.99936e-66             180      2.99936e-66             180          0.99994        -179.576
61.68                   0.999834        -179.593      2.99936e-66             180      2.99936e-66             180         0.999941        -179.575
61.69                   0.999835        -179.592      2.99936e-66             180      2.99936e-66             180         0.999941        -179.575
61.7                    0.999836        -179.592      2.99936e-66             180      2.99936e-66             180         0.999942        -179.575
61.71                   0.999837        -179.592      2.99936e-66             180      2.99936e-66             180         0.999943        -179.574
61.72                   0.999838        -179.591      2.99936e-66             180      2.99936e-66             180         0.999944        -179.574
61.73                   0.999839        -179.591      2.99936e-66             180      2.99936e-66             180         0.999944        -179.574
61.74                    0.99984        -179.591      2.99936e-66             180      2.99936e-66             180         0.999945        -179.573
61.75                   0.999841         -179.59      2.99936e-66             180      2.99936e-66             180         0.999946        -179.573
61.76                   0.999842         -179.59      2.99936e-66             180      2.99936e-66             180         0.999947        -179.572
61.77                   0.999843        -179.589      2.99936e-66             180      2.99936e-66             180         0.999948        -179.572
61.78                   0.999844        -179.589      2.99936e-66             180      2.99936e-66             180         0.999948        -179.572
61.79                   0.999845        -179.589      2.99936e-66             180      2.99936e-66             180         0.999949        -179.571
61.8                    0.999846        -179.588      2.99936e-66             180      2.99936e-66             180          0.99995        -179.571
61.81                   0.999848        -179.588      2.99936e-66             180      2.99936e-66             180         0.999951         -179.57
61.82                   0.999849        -179.588      2.99936e-66             180      2.99936e-66             180         0.999951         -179.57
61.83                    0.99985        -179.587      2.99936e-66             180      2.99936e-66             180         0.999952         -179.57
61.84                   0.999851        -179.587      2.99936e-66             180      2.99936e-66             180         0.999953        -179.569
61.85                   0.999853        -179.586      1.99957e-66             180      1.99957e-66             180         0.999954        -179.569
61.86                   0.999854        -179.586      1.99957e-66             180      1.99957e-66             180         0.999954        -179.568
61.87                   0.999855        -179.585      1.99957e-66             180      1.99957e-66             180         0.999955        -179.568
61.88                   0.999856        -179.585      1.99957e-66             180      1.99957e-66             180         0.999956        -179.568
61.89                   0.999858        -179.585      1.99957e-66             180      1.99957e-66             180         0.999957        -179.567
61.9                    0.999859        -179.584      1.99957e-66             180      1.99957e-66             180         0.999957        -179.567
61.91                   0.999861        -179.584      1.99957e-66             180      1.99957e-66             180         0.999958        -179.566
61.92                   0.999862        -179.583      1.99957e-66             180      1.99957e-66             180         0.999959        -179.566
61.93                   0.999863        -179.583      1.99957e-66             180      1.99957e-66             180          0.99996        -179.565
61.94                   0.999865        -179.582      1.99957e-66             180      1.99957e-66             180          0.99996        -179.565
61.95                   0.999866        -179.582      1.99957e-66             180      1.99957e-66             180         0.999961        -179.564
61.96                   0.999868        -179.581      1.99957e-66             180      1.99957e-66             180         0.999962        -179.564
61.97                   0.999869        -179.581      1.99957e-66             180      1.99957e-66             180         0.999963        -179.564