! TOUCHSTONE file generated by CST MICROWAVE STUDIO
! Date and time: Sat Feb 17 15:53:14 2024
! Project name: metal_rotado.cst
! Parameters = {PX=1.5; angX=2; angY=2}
! Header version: 2018
! Port assignment regex: !\s*Touchstone port\s*([0-9]+)\s*=\s*(CST MWS port|CST DS port)\s*([0-9]+|Zmin|Zmax)\s*\(\"(.*)\"\)(\s*mode\s*([0-9]+))?.*
! Touchstone port assignment:
! Touchstone port 1 = CST MWS port 1 ("")
! Touchstone port 2 = CST MWS port 2 ("")
# GHz S MA R 376.7
60                       1.00001        -165.085      1.50648e-65         179.964      1.50648e-65         179.964                1         148.312
60.01                   0.999985        -167.594      1.40606e-65         179.956      1.40606e-65         179.956                1         147.531
60.02                    1.00238         135.969      1.40519e-65         179.831      1.40519e-65         179.831         0.999999         146.769
60.03                    1.00014        -156.395      1.40581e-65         179.978      1.40581e-65         179.978         0.999952         145.997
60.04                    1.00007        -159.597      1.40585e-65          179.97      1.40585e-65          179.97         0.999906         145.197
60.05                    1.00005        -160.626      1.40585e-65         179.966      1.40585e-65         179.966         0.999867         144.353
60.06                    1.00003        -161.146      1.40583e-65         179.963      1.40583e-65         179.963         0.999837          143.45
60.07                    1.00002        -161.467      1.30538e-65          179.96      1.30538e-65          179.96         0.999818         142.474
60.08                    1.00002         -161.69      1.30535e-65         179.958      1.30535e-65         179.958         0.999811         141.403
60.09                    1.00001        -161.859      1.30531e-65         179.955      1.30531e-65         179.955         0.999817         140.213
60.1                     1.00001        -161.993      1.30527e-65         179.953      1.30527e-65         179.953         0.999841          138.86
60.11                          1        -162.104      1.30521e-65          179.95      1.30521e-65          179.95          0.99989         137.263
60.12                   0.999998        -162.201                0               0                0               0         0.999993         135.197
60.13                   0.999996        -162.285      1.20461e-65          179.94      1.20461e-65          179.94                1         131.527
60.14                   0.999995        -162.362      1.20547e-65        -179.994      1.20547e-65        -179.994         0.998688         164.817
60.15                   0.999996        -162.432      1.20473e-65         179.945      1.20473e-65         179.945         0.999473         134.821
60.16                          1        -162.497       1.2046e-65         179.938       1.2046e-65         179.938         0.999698         131.022
60.17                    1.00001        -162.558       1.1041e-65         179.933       1.1041e-65         179.933         0.999828         127.836
60.18                    1.00003        -162.614                0               0                0               0         0.999943         124.476
60.19                    1.00008        -162.667      1.10383e-65         179.924      1.10383e-65         179.924                1         120.678
60.2                     1.00019        -162.716      1.10366e-65         179.919      1.10366e-65         179.919                1         116.239
60.21                    1.00049        -162.762      1.10344e-65         179.913      1.10344e-65         179.913                1         110.929
60.22                     1.0012        -162.827      1.10316e-65         179.909      1.10316e-65         179.909                1         104.448
60.23                     1.0012        -162.939       1.1028e-65         179.905       1.1028e-65         179.905                1         96.3871
60.24                    1.00057        -163.005      1.00212e-65         179.904      1.00212e-65         179.904                1         86.1789
60.25                    1.00028        -163.051      1.00159e-65         179.909      1.00159e-65         179.909                1         73.0567
60.26                    1.00015        -163.098      1.00095e-65         179.926      1.00095e-65         179.926                1         56.0793
60.27                    1.00008        -163.146      1.00032e-65         179.962      1.00032e-65         179.962                1         34.3864
60.28                    1.00004        -163.195      9.99922e-66         -179.98      9.99922e-66         -179.98                1         7.93432
60.29                    1.00002        -163.246      1.00007e-65        -179.911      1.00007e-65        -179.911                1        -21.4875
60.3                           1        -163.297                0               0               -0             180                1        -50.3781
60.31                   0.999987        -163.349      1.00169e-65         -179.83      1.00169e-65         -179.83         0.999314        -75.5736
60.32                   0.999977        -163.401      1.00252e-65        -179.826      1.00252e-65        -179.826         0.998847        -95.8712
60.33                   0.999968        -163.454      1.00316e-65        -179.835      1.00316e-65        -179.835          0.99858        -111.648
60.34                   0.999962        -163.508       1.0036e-65        -179.849       1.0036e-65        -179.849         0.998447        -123.837
60.35                   0.999956        -163.563      1.00391e-65        -179.863      1.00391e-65        -179.863         0.998394        -133.338
60.36                   0.999951        -163.618      1.00412e-65        -179.876      1.00412e-65        -179.876         0.998386        -140.858
60.37                   0.999947        -163.674      1.00427e-65        -179.888      1.00427e-65        -179.888         0.998402         -146.91
60.38                   0.999943        -163.731      1.00438e-65        -179.898      1.00438e-65        -179.898         0.998431        -151.861
60.39                   0.999939        -163.789      1.00445e-65        -179.907      1.00445e-65        -179.907         0.998466        -155.972
60.4                    0.999936        -163.848      1.00451e-65        -179.915      1.00451e-65        -179.915         0.998503        -159.433
60.41                   0.999934        -163.907      1.00455e-65        -179.921      1.00455e-65        -179.921         0.998542        -162.381
60.42                   0.999931        -163.968      1.00458e-65        -179.927      1.00458e-65        -179.927         0.998581         -164.92
60.43                   0.999929         -164.03       1.0046e-65        -179.933       1.0046e-65        -179.933         0.998618        -167.128
60.44                   0.999927        -164.093      1.00462e-65        -179.937      1.00462e-65        -179.937         0.998655        -169.064
60.45                   0.999925        -164.157      1.00463e-65        -179.941      1.00463e-65        -179.941          0.99869        -170.775
60.46                   0.999923        -164.222      1.00464e-65        -179.945      1.00464e-65        -179.945         0.998724        -172.297
60.47                   0.999921        -164.288      1.00465e-65        -179.948      1.00465e-65        -179.948         0.998757         -173.66
60.48                    0.99992        -164.356      1.00466e-65        -179.951      1.00466e-65        -179.951         0.998788        -174.887
60.49                   0.999918        -164.425      1.00466e-65        -179.954      1.00466e-65        -179.954         0.998818        -175.997
60.5                    0.999917        -164.495      1.00466e-65        -179.957      1.00466e-65        -179.957         0.998848        -177.007
60.51                   0.999916        -164.567      1.00467e-65        -179.959      1.00467e-65        -179.959         0.998876        -177.929
60.52                   0.999915         -164.64      1.00467e-65        -179.961      1.00467e-65        -179.961         0.998904        -178.774
60.53                   0.999914        -164.715      1.00467e-65        -179.963      1.00467e-65        -179.963         0.998931        -179.551
60.54                   0.999913        -164.792      1.00467e-65        -179.965      1.00467e-65        -179.965         0.998956         179.732
60.55                   0.999913         -164.87      1.00467e-65        -179.967      1.00467e-65        -179.967         0.998982         179.067
60.56                   0.999912         -164.95      1.00467e-65        -179.968      1.00467e-65        -179.968         0.999006         178.451
60.57                   0.999912        -165.032      1.00467e-65         -179.97      1.00467e-65         -179.97          0.99903         177.876
60.58                   0.999911        -165.116      1.00467e-65        -179.971      1.00467e-65        -179.971         0.999054          177.34
60.59                   0.999911        -165.202      1.00467e-65        -179.973      1.00467e-65        -179.973         0.999077         176.839
60.6                    0.999911         -165.29      1.00467e-65        -179.974      1.00467e-65        -179.974         0.999099         176.369
60.61                    0.99991         -165.38      1.00467e-65        -179.975      1.00467e-65        -179.975         0.999121         175.927
60.62                    0.99991        -165.473      1.00467e-65        -179.977      1.00467e-65        -179.977         0.999143         175.512
60.63                    0.99991        -165.567      1.00467e-65        -179.978      1.00467e-65        -179.978         0.999164          175.12
60.64                    0.99991        -165.665      1.00467e-65        -179.979      1.00467e-65        -179.979         0.999185         174.749
60.65                    0.99991        -165.765      1.00467e-65         -179.98      1.00467e-65         -179.98         0.999206         174.399
60.66                   0.999911        -165.867      1.00467e-65        -179.981      1.00467e-65        -179.981         0.999226         174.067
60.67                   0.999911        -165.972      1.00467e-65        -179.982      1.00467e-65        -179.982         0.999246         173.752
60.68                   0.999911        -166.081      1.00467e-65        -179.983      1.00467e-65        -179.983         0.999265         173.452
60.69                   0.999912        -166.192      1.00467e-65        -179.984      1.00467e-65        -179.984         0.999284         173.167
60.7                    0.999912        -166.307      1.00467e-65        -179.985      1.00467e-65        -179.985         0.999303         172.895
60.71                   0.999913        -166.425      1.00467e-65        -179.986      1.00467e-65        -179.986         0.999322         172.636
60.72                   0.999913        -166.546      1.00467e-65        -179.986      1.00467e-65        -179.986         0.999341         172.389
60.73                   0.999914        -166.671      1.00467e-65        -179.987      1.00467e-65        -179.987         0.999359         172.152
60.74                   0.999915          -166.8      1.00467e-65        -179.988      1.00467e-65        -179.988         0.999377         171.926
60.75                   0.999915        -166.933      9.04202e-66        -179.989      9.04202e-66        -179.989         0.999395         171.709
60.76                   0.999916        -167.071      9.04202e-66         -179.99      9.04202e-66         -179.99         0.999412         171.501
60.77                   0.999917        -167.212      9.04202e-66         -179.99      9.04202e-66         -179.99          0.99943         171.301
60.78                   0.999918        -167.359      9.04203e-66        -179.991      9.04203e-66        -179.991         0.999447          171.11
60.79                   0.999919         -167.51      9.04203e-66        -179.992      9.04203e-66        -179.992         0.999464         170.925
60.8                     0.99992        -167.667      9.04203e-66        -179.993      9.04203e-66        -179.993          0.99948         170.748
60.81                   0.999921        -167.829      9.04203e-66        -179.994      9.04203e-66        -179.994         0.999497         170.577
60.82                   0.999922        -167.997      9.04204e-66        -179.994      9.04204e-66        -179.994         0.999513         170.412
60.83                   0.999924        -168.171      9.04204e-66        -179.995      9.04204e-66        -179.995          0.99953         170.253
60.84                   0.999925        -168.352      9.04205e-66        -179.996      9.04205e-66        -179.996         0.999546         170.099
60.85                   0.999926        -168.539      9.04205e-66        -179.997      9.04205e-66        -179.997         0.999562         169.951
60.86                   0.999928        -168.734      9.04206e-66        -179.997      9.04206e-66        -179.997         0.999577         169.808
60.87                   0.999929        -168.936      9.04206e-66        -179.998      9.04206e-66        -179.998         0.999593         169.669
60.88                    0.99993        -169.146      9.04207e-66        -179.999      9.04207e-66        -179.999         0.999608         169.535
60.89                   0.999932        -169.366      9.04208e-66            -180      9.04208e-66            -180         0.999623         169.406
60.9                    0.999934        -169.594      9.04208e-66         179.999      9.04208e-66         179.999         0.999638          169.28
60.91                   0.999935        -169.832      9.04209e-66         179.998      9.04209e-66         179.998         0.999653         169.158
60.92                   0.999937        -170.081       9.0421e-66         179.998       9.0421e-66         179.998         0.999668         169.039
60.93                   0.999938        -170.341      9.04211e-66         179.997      9.04211e-66         179.997         0.999682         168.925
60.94                    0.99994        -170.613      9.04212e-66         179.996      9.04212e-66         179.996         0.999697         168.813
60.95                   0.999942        -170.898      9.04213e-66         179.995      9.04213e-66         179.995         0.999711         168.705
60.96                   0.999944        -171.197      9.04214e-66         179.994      9.04214e-66         179.994         0.999725           168.6
60.97                   0.999946         -171.51      9.04215e-66         179.993      9.04215e-66         179.993         0.999739         168.497
60.98                   0.999948         -171.84      9.04216e-66         179.992      9.04216e-66         179.992         0.999752         168.398
60.99                    0.99995        -172.187      9.04217e-66         179.991      9.04217e-66         179.991         0.999766         168.301
61                      0.999952        -172.553      9.04218e-66          179.99      9.04218e-66          179.99         0.999779         168.206
61.01                   0.999954        -172.939      9.04219e-66         179.989      9.04219e-66         179.989         0.999792         168.114
61.02                   0.999956        -173.347       9.0422e-66         179.988       9.0422e-66         179.988         0.999805         168.024
61.03                   0.999958        -173.779      9.04222e-66         179.986      9.04222e-66         179.986         0.999818         167.937
61.04                    0.99996        -174.237      9.04223e-66         179.985      9.04223e-66         179.985         0.999831         167.852
61.05                   0.999962        -174.724      9.04224e-66         179.984      9.04224e-66         179.984         0.999843         167.768
61.06                   0.999965        -175.243      9.04225e-66         179.982      9.04225e-66         179.982         0.999856         167.687
61.07                   0.999967        -175.796      9.04226e-66         179.981      9.04226e-66         179.981         0.999868         167.608
61.08                    0.99997        -176.387      9.04227e-66         179.979      9.04227e-66         179.979          0.99988          167.53
61.09                   0.999972        -177.021      9.04228e-66         179.978      9.04228e-66         179.978         0.999891         167.454
61.1                    0.999975        -177.702      9.04228e-66         179.976      9.04228e-66         179.976         0.999903          167.38
61.11                   0.999977        -178.435      9.04229e-66         179.974      9.04229e-66         179.974         0.999914         167.308
61.12                    0.99998        -179.227      9.04229e-66         179.972      9.04229e-66         179.972         0.999925         167.237
61.13                   0.999983         179.915      9.04229e-66          179.97      9.04229e-66          179.97         0.999936         167.168
61.14                   0.999986         178.982      9.04228e-66         179.967      9.04228e-66         179.967         0.999947           167.1
61.15                   0.999988         177.963      9.04226e-66         179.965      9.04226e-66         179.965         0.999957         167.033
61.16                   0.999991         176.848      9.04224e-66         179.962      9.04224e-66         179.962         0.999968         166.968
61.17                   0.999994         175.621       9.0422e-66         179.959       9.0422e-66         179.959         0.999977         166.904
61.18                   0.999998         174.266      9.04215e-66         179.956      9.04215e-66         179.956         0.999987         166.841
61.19                          1          172.76                0               0                0               0         0.999997          166.78
61.2                           1         171.078      9.04199e-66         179.948      9.04199e-66         179.948                1         166.719
61.21                    1.00001         169.188      9.04187e-66         179.943      9.04187e-66         179.943                1          166.66
61.22                    1.00001          167.05       9.0417e-66         179.938       9.0417e-66         179.938                1         166.602
61.23                    1.00001         164.613      9.04147e-66         179.932      9.04147e-66         179.932                1         166.545
61.24                    1.00002         161.811      9.04117e-66         179.926      9.04117e-66         179.926                1         166.489
61.25                    1.00002         158.561      9.04075e-66         179.919      9.04075e-66         179.919                1         166.433
61.26                    1.00002         154.752      9.04018e-66          179.91      9.04018e-66          179.91                1         166.379
61.27                    1.00002         150.235       9.0394e-66         179.901       9.0394e-66         179.901                1         166.326
61.28                    1.00002         144.812      9.03831e-66          179.89      9.03831e-66          179.89                1         166.273
61.29                    1.00001         138.213      9.03678e-66         179.877      9.03678e-66         179.877                1         166.222
61.3                           1         130.067      9.03459e-66         179.864      9.03459e-66         179.864                1         166.171
61.31                   0.999986         119.876      8.02798e-66          179.85      8.02798e-66          179.85                1         166.121
61.32                   0.999954         106.999      8.02406e-66         179.837      8.02406e-66         179.837                1         166.071
61.33                   0.999903         90.6934      8.01873e-66         179.831      8.01873e-66         179.831                1         166.022
61.34                   0.999829         70.3524      8.01209e-66         179.839      8.01209e-66         179.839                1         165.974
61.35                   0.999738         46.0438      8.00527e-66         179.869      8.00527e-66         179.869                1         165.927
61.36                   0.999653          19.181      8.00049e-66         179.922      8.00049e-66         179.922                1          165.88
61.37                   0.999602        -7.56009       7.9996e-66         179.985       7.9996e-66         179.985                1         165.834
61.38                   0.999595        -31.5713      8.00225e-66        -179.962      8.00225e-66        -179.962                1         165.788
61.39                   0.999618        -51.5664      8.00664e-66        -179.927      8.00664e-66        -179.927                1         165.743
61.4                    0.999654        -67.5618       8.0112e-66        -179.908       8.0112e-66        -179.908                1         165.698
61.41                   0.999692        -80.1925      8.01522e-66          -179.9      8.01522e-66          -179.9                1         165.654
61.42                   0.999726         -90.196      8.01853e-66        -179.898      8.01853e-66        -179.898                1          165.61
61.43                   0.999756        -98.2038                0               0                0               0                1         165.566
61.44                   0.999781        -104.702      8.02328e-66        -179.902      8.02328e-66        -179.902                1         165.523
61.45                   0.999802        -110.051      8.02497e-66        -179.906      8.02497e-66        -179.906                1          165.48
61.46                    0.99982        -114.514      8.02634e-66        -179.911      8.02634e-66        -179.911                1         165.437
61.47                   0.999836        -118.286      8.02746e-66        -179.915      8.02746e-66        -179.915                1         165.395
61.48                   0.999849         -121.51      8.02838e-66        -179.919      8.02838e-66        -179.919         0.999998         165.352
61.49                    0.99986        -124.295      8.02915e-66        -179.922      8.02915e-66        -179.922         0.999977          165.31
61.5                     0.99987        -126.724      8.02981e-66        -179.926      8.02981e-66        -179.926         0.999954         165.267
61.51                   0.999879         -128.86      8.03036e-66        -179.929      8.03036e-66        -179.929         0.999927         165.224
61.52                   0.999886        -130.753      8.03084e-66        -179.932      8.03084e-66        -179.932         0.999898         165.181
61.53                   0.999893        -132.443      8.03126e-66        -179.935      8.03126e-66        -179.935         0.999865         165.138
61.54                     0.9999        -133.961      8.03162e-66        -179.937      8.03162e-66        -179.937         0.999829         165.094
61.55                   0.999905        -135.334      8.03194e-66         -179.94      8.03194e-66         -179.94          0.99979          165.05
61.56                    0.99991        -136.581      8.03222e-66        -179.942      8.03222e-66        -179.942         0.999747         165.005
61.57                   0.999915        -137.721      8.03247e-66        -179.944      8.03247e-66        -179.944         0.999702         164.959
61.58                   0.999919        -138.767       8.0327e-66        -179.946       8.0327e-66        -179.946         0.999655         164.912
61.59                   0.999923        -139.732       8.0329e-66        -179.948       8.0329e-66        -179.948         0.999605         164.864
61.6                    0.999927        -140.626      8.03309e-66        -179.949      8.03309e-66        -179.949         0.999554         164.814
61.61                    0.99993        -141.458       7.0291e-66        -179.951       7.0291e-66        -179.951         0.999504         164.762
61.62                   0.999933        -142.234      7.02923e-66        -179.953      7.02923e-66        -179.953         0.999454         164.708
61.63                   0.999936        -142.963      7.02936e-66        -179.954      7.02936e-66        -179.954         0.999407         164.651
61.64                   0.999939        -143.649      7.02947e-66        -179.956      7.02947e-66        -179.956         0.999364         164.591
61.65                   0.999941        -144.298      7.02958e-66        -179.957      7.02958e-66        -179.957         0.999327         164.528
61.66                   0.999944        -144.914      7.02968e-66        -179.958      7.02968e-66        -179.958         0.999296          164.46
61.67                   0.999947        -145.501      7.02977e-66         -179.96      7.02977e-66         -179.96         0.999274         164.387
61.68                   0.999949        -146.063      7.02985e-66        -179.961      7.02985e-66        -179.961         0.999261         164.307
61.69                   0.999951        -146.603      7.02993e-66        -179.962      7.02993e-66        -179.962         0.999259         164.219
61.7                    0.999954        -147.125      7.03001e-66        -179.963      7.03001e-66        -179.963         0.999269         164.121
61.71                   0.999957        -147.632      7.03008e-66        -179.965      7.03008e-66        -179.965          0.99929         164.009
61.72                   0.999959        -148.126      7.03015e-66        -179.966      7.03015e-66        -179.966         0.999324         163.878
61.73                   0.999963        -148.611      7.03021e-66        -179.967      7.03021e-66        -179.967         0.999371          163.72
61.74                   0.999967        -149.091      7.03026e-66        -179.969      7.03026e-66        -179.969         0.999434         163.523
61.75                   0.999971        -149.568      7.03031e-66         -179.97      7.03031e-66         -179.97         0.999515         163.265
61.76                   0.999978        -150.045      7.03036e-66        -179.972      7.03036e-66        -179.972         0.999623         162.905
61.77                   0.999987        -150.528      7.03038e-66        -179.974      7.03038e-66        -179.974         0.999772         162.351
61.78                          1         -151.02      7.03037e-66        -179.978      7.03037e-66        -179.978                1         161.366
61.79                    1.00002        -151.527      6.02589e-66        -179.984      6.02589e-66        -179.984                1         159.046
61.8                     1.00006        -152.056                0               0                0               0         0.999987         146.247
61.81                    1.00013        -152.614      6.02686e-66        -179.941      6.02686e-66        -179.941         0.993194          178.59
61.82                    1.00027        -153.213      6.02677e-66        -179.963      6.02677e-66        -179.963         0.997714         169.651
61.83                    1.00059        -153.861      6.02676e-66        -179.969      6.02676e-66        -179.969         0.998491         167.642
61.84                    1.00111        -154.558       6.0268e-66        -179.973       6.0268e-66        -179.973         0.998824         166.746
61.85                    1.00109        -155.322      6.02685e-66        -179.976      6.02685e-66        -179.976         0.999021         166.232
61.86                    1.00065        -156.243      6.02692e-66        -179.978      6.02692e-66        -179.978         0.999159         165.895
61.87                    1.00038        -157.361      6.02701e-66        -179.981      6.02701e-66        -179.981         0.999267         165.654
61.88                    1.00024        -158.745      5.02261e-66        -179.985      5.02261e-66        -179.985         0.999361         165.471
61.89                    1.00017        -160.534      5.02273e-66        -179.989      5.02273e-66        -179.989          0.99945         165.327
61.9                     1.00013         -162.98      5.02288e-66        -179.995      5.02288e-66        -179.995         0.999545         165.208
61.91                     1.0001        -166.601      5.02308e-66         179.997      5.02308e-66         179.997         0.999657         165.109
61.92                    1.00009        -172.618       5.0233e-66         179.982       5.0233e-66         179.982         0.999794         165.021
61.93                     1.0001         175.244      5.02335e-66         179.953      5.02335e-66         179.953         0.999932          164.94
61.94                    1.00016         139.333                0               0                0               0                1         164.865
61.95                    1.00014        -11.5267                0               0                0               0         0.999985         164.797
61.96                    1.00001        -101.077      4.01103e-66        -179.902      4.01103e-66        -179.902         0.999941         164.738
61.97                          1        -122.396      4.01429e-66        -179.921      4.01429e-66        -179.921         0.999906         164.686