! TOUCHSTONE file generated by CST MICROWAVE STUDIO
! Date and time: Sat Feb 17 15:53:17 2024
! Project name: metal_rotado.cst
! Parameters = {PX=1.75; angX=2; angY=2}
! Header version: 2018
! Port assignment regex: !\s*Touchstone port\s*([0-9]+)\s*=\s*(CST MWS port|CST DS port)\s*([0-9]+|Zmin|Zmax)\s*\(\"(.*)\"\)(\s*mode\s*([0-9]+))?.*
! Touchstone port assignment:
! Touchstone port 1 = CST MWS port 1 ("")
! Touchstone port 2 = CST MWS port 2 ("")
# GHz S MA R 376.7
60                       0.99988        -148.154      1.50641e-65         179.971      1.50641e-65         179.971                1         134.364
60.01                          1         -155.74                0               0                0               0                1         132.371
60.02                    1.00001        -157.478      1.40608e-65         179.941      1.40608e-65         179.941         0.997394         130.698
60.03                    1.00001        -158.266      1.40601e-65         179.937      1.40601e-65         179.937         0.995477         129.029
60.04                    1.00002        -158.726      1.40593e-65         179.933      1.40593e-65         179.933         0.994116         127.248
60.05                    1.00002        -159.034      1.40583e-65         179.929      1.40583e-65         179.929         0.993098           125.3
60.06                    1.00001        -159.261      1.40571e-65         179.925      1.40571e-65         179.925         0.992289          123.14
60.07                    1.00001        -159.438      1.40558e-65         179.921      1.40558e-65         179.921         0.991609          120.72
60.08                    1.00001        -159.584      1.40542e-65         179.917      1.40542e-65         179.917         0.991008         117.988
60.09                    1.00001        -159.707      1.40524e-65         179.913      1.40524e-65         179.913         0.990454         114.878
60.1                     1.00001        -159.816      1.40502e-65         179.909      1.40502e-65         179.909         0.989925         111.307
60.11                    1.00001        -159.912      1.40476e-65         179.905      1.40476e-65         179.905         0.989408         107.172
60.12                    1.00001        -160.001      1.40445e-65         179.902      1.40445e-65         179.902         0.988896         102.339
60.13                    1.00001        -160.083      1.30379e-65         179.899      1.30379e-65         179.899         0.988391         96.6354
60.14                    1.00001         -160.16      1.30337e-65         179.898      1.30337e-65         179.898         0.987909         89.8382
60.15                    1.00001        -160.232      1.30287e-65         179.899      1.30287e-65         179.899         0.987491         81.6623
60.16                    1.00001        -160.302      1.30227e-65         179.905      1.30227e-65         179.905         0.987212         71.7533
60.17                          1         -160.37       1.3016e-65         179.918       1.3016e-65         179.918         0.987203          59.698
60.18                          1        -160.435      1.30088e-65         179.942      1.30088e-65         179.942          0.98767         45.0817
60.19                          1        -160.499      1.30024e-65          179.98      1.30024e-65          179.98         0.988861         27.6348
60.2                           1        -160.562      1.29986e-65        -179.968      1.29986e-65        -179.968         0.990954         7.49146
60.21                          1        -160.624      1.29994e-65        -179.908      1.29994e-65        -179.908         0.993835        -14.5428
60.22                          1        -160.685      1.30053e-65        -179.853      1.30053e-65        -179.853         0.996991        -37.0047
60.23                          1        -160.745       1.3015e-65        -179.814       1.3015e-65        -179.814         0.999755        -58.2595
60.24                   0.999999        -160.805      1.30259e-65        -179.795      1.30259e-65        -179.795                1        -77.1346
60.25                   0.999999        -160.865      1.30359e-65        -179.791      1.30359e-65        -179.791                1        -93.1774
60.26                   0.999998        -160.925      1.30441e-65        -179.798      1.30441e-65        -179.798                1         -106.49
60.27                   0.999997        -160.985      1.30505e-65        -179.809      1.30505e-65        -179.809                1        -117.437
60.28                   0.999997        -161.045      1.30553e-65        -179.822      1.30553e-65        -179.822                1        -126.446
60.29                   0.999996        -161.105      1.30588e-65        -179.836      1.30588e-65        -179.836                1        -133.903
60.3                    0.999995        -161.166      1.30615e-65        -179.848      1.30615e-65        -179.848                1         -140.13
60.31                   0.999995        -161.226      1.30635e-65         -179.86      1.30635e-65         -179.86                1        -145.378
60.32                   0.999994        -161.288       1.3065e-65        -179.871       1.3065e-65        -179.871                1        -149.845
60.33                   0.999994        -161.349      1.30661e-65         -179.88      1.30661e-65         -179.88                1        -153.682
60.34                   0.999993        -161.412       1.3067e-65        -179.888       1.3067e-65        -179.888                1        -157.007
60.35                   0.999993        -161.475      1.30677e-65        -179.896      1.30677e-65        -179.896                1        -159.912
60.36                   0.999992        -161.538       1.2063e-65        -179.903       1.2063e-65        -179.903                1        -162.469
60.37                   0.999992        -161.602      1.20633e-65        -179.909      1.20633e-65        -179.909                1        -164.734
60.38                   0.999991        -161.668      1.20636e-65        -179.915      1.20636e-65        -179.915                1        -166.755
60.39                   0.999991        -161.733      1.20639e-65         -179.92      1.20639e-65         -179.92                1        -168.567
60.4                     0.99999          -161.8      1.20641e-65        -179.924      1.20641e-65        -179.924                1          -170.2
60.41                    0.99999        -161.868      1.20642e-65        -179.928      1.20642e-65        -179.928                1         -171.68
60.42                    0.99999        -161.936      1.20643e-65        -179.932      1.20643e-65        -179.932                1        -173.027
60.43                   0.999989        -162.006      1.20644e-65        -179.936      1.20644e-65        -179.936                1        -174.257
60.44                   0.999989        -162.076      1.20645e-65        -179.939      1.20645e-65        -179.939                1        -175.385
60.45                   0.999989        -162.148      1.20645e-65        -179.942      1.20645e-65        -179.942                1        -176.424
60.46                   0.999989        -162.221      1.20646e-65        -179.945      1.20646e-65        -179.945                1        -177.382
60.47                   0.999988        -162.295               -0             180               -0             180         0.999991         -178.27
60.48                   0.999988         -162.37      1.20646e-65         -179.95      1.20646e-65         -179.95         0.999934        -179.095
60.49                   0.999988        -162.447      1.20647e-65        -179.952      1.20647e-65        -179.952         0.999883        -179.863
60.5                    0.999988        -162.525      1.20647e-65        -179.954      1.20647e-65        -179.954         0.999838          179.42
60.51                   0.999988        -162.604      1.20647e-65        -179.956      1.20647e-65        -179.956         0.999797         178.749
60.52                   0.999988        -162.685      1.20647e-65        -179.958      1.20647e-65        -179.958         0.999761          178.12
60.53                   0.999988        -162.767      1.20647e-65         -179.96      1.20647e-65         -179.96         0.999729         177.529
60.54                   0.999988        -162.851      1.20647e-65        -179.962      1.20647e-65        -179.962         0.999701         176.973
60.55                   0.999988        -162.936      1.20647e-65        -179.964      1.20647e-65        -179.964         0.999676         176.448
60.56                   0.999988        -163.023      1.20647e-65        -179.965      1.20647e-65        -179.965         0.999654         175.952
60.57                   0.999988        -163.112      1.20647e-65        -179.967      1.20647e-65        -179.967         0.999635         175.483
60.58                   0.999988        -163.203      1.20647e-65        -179.968      1.20647e-65        -179.968         0.999618         175.039
60.59                   0.999988        -163.296      1.20647e-65         -179.97      1.20647e-65         -179.97         0.999604         174.617
60.6                    0.999988         -163.39      1.20646e-65        -179.971      1.20646e-65        -179.971         0.999592         174.216
60.61                   0.999988        -163.487      1.20646e-65        -179.972      1.20646e-65        -179.972         0.999581         173.834
60.62                   0.999988        -163.585      1.20646e-65        -179.973      1.20646e-65        -179.973         0.999573          173.47
60.63                   0.999989        -163.686      1.20646e-65        -179.975      1.20646e-65        -179.975         0.999566         173.123
60.64                   0.999989        -163.789      1.20646e-65        -179.976      1.20646e-65        -179.976          0.99956         172.792
60.65                   0.999989        -163.895      1.20646e-65        -179.977      1.20646e-65        -179.977         0.999556         172.475
60.66                    0.99999        -164.003      1.20646e-65        -179.978      1.20646e-65        -179.978         0.999553         172.171
60.67                    0.99999        -164.114      1.20646e-65        -179.979      1.20646e-65        -179.979         0.999551          171.88
60.68                    0.99999        -164.227      1.20646e-65         -179.98      1.20646e-65         -179.98          0.99955         171.602
60.69                   0.999991        -164.343      1.20646e-65        -179.981      1.20646e-65        -179.981          0.99955         171.334
60.7                    0.999991        -164.462      1.20646e-65        -179.982      1.20646e-65        -179.982          0.99955         171.077
60.71                   0.999992        -164.584      1.20646e-65        -179.983      1.20646e-65        -179.983         0.999552         170.829
60.72                   0.999992        -164.709      1.20646e-65        -179.984      1.20646e-65        -179.984         0.999554         170.591
60.73                   0.999993        -164.837      1.20646e-65        -179.985      1.20646e-65        -179.985         0.999557         170.361
60.74                   0.999994        -164.969      1.20646e-65        -179.986      1.20646e-65        -179.986          0.99956          170.14
60.75                   0.999994        -165.104      1.20646e-65        -179.987      1.20646e-65        -179.987         0.999564         169.927
60.76                   0.999995        -165.243      1.20646e-65        -179.988      1.20646e-65        -179.988         0.999568         169.721
60.77                   0.999996        -165.386      1.20646e-65        -179.989      1.20646e-65        -179.989         0.999573         169.522
60.78                   0.999997        -165.532      1.20646e-65         -179.99      1.20646e-65         -179.99         0.999578         169.329
60.79                   0.999998        -165.684      1.20646e-65        -179.991      1.20646e-65        -179.991         0.999583         169.143
60.8                    0.999999        -165.839      1.20646e-65        -179.992      1.20646e-65        -179.992         0.999589         168.963
60.81                          1        -165.999      1.10592e-65        -179.993      1.10592e-65        -179.993         0.999595         168.789
60.82                          1        -166.164      1.10592e-65        -179.993      1.10592e-65        -179.993         0.999601         168.619
60.83                          1        -166.334      1.10592e-65        -179.994      1.10592e-65        -179.994         0.999608         168.455
60.84                          1         -166.51      1.10592e-65        -179.995      1.10592e-65        -179.995         0.999614         168.296
60.85                          1        -166.691      1.10592e-65        -179.996      1.10592e-65        -179.996         0.999621         168.142
60.86                    1.00001        -166.878      1.10592e-65        -179.997      1.10592e-65        -179.997         0.999628         167.992
60.87                    1.00001        -167.071      1.10592e-65        -179.998      1.10592e-65        -179.998         0.999635         167.846
60.88                    1.00001        -167.271      1.10592e-65        -179.999      1.10592e-65        -179.999         0.999642         167.704
60.89                    1.00001        -167.477      1.10593e-65            -180      1.10593e-65            -180          0.99965         167.566
60.9                     1.00001        -167.691      1.10593e-65         179.999      1.10593e-65         179.999         0.999657         167.432
60.91                    1.00001        -167.912      1.10593e-65         179.998      1.10593e-65         179.998         0.999664         167.301
60.92                    1.00002        -168.142      1.10593e-65         179.997      1.10593e-65         179.997         0.999672         167.174
60.93                    1.00002         -168.38      1.10593e-65         179.996      1.10593e-65         179.996         0.999679          167.05
60.94                    1.00002        -168.627      1.10593e-65         179.995      1.10593e-65         179.995         0.999686         166.929
60.95                    1.00002        -168.884      1.10593e-65         179.994      1.10593e-65         179.994         0.999694         166.811
60.96                    1.00003         -169.15      1.10593e-65         179.993      1.10593e-65         179.993         0.999701         166.695
60.97                    1.00003        -169.428      1.10594e-65         179.992      1.10594e-65         179.992         0.999708         166.583
60.98                    1.00003        -169.717      1.10594e-65         179.991      1.10594e-65         179.991         0.999716         166.473
60.99                    1.00003        -170.018      1.10594e-65          179.99      1.10594e-65          179.99         0.999723         166.366
61                       1.00004        -170.333      1.10594e-65         179.989      1.10594e-65         179.989          0.99973         166.261
61.01                    1.00004        -170.661      1.10594e-65         179.988      1.10594e-65         179.988         0.999737         166.159
61.02                    1.00004        -171.004      1.10594e-65         179.987      1.10594e-65         179.987         0.999745         166.059
61.03                    1.00005        -171.362      1.10594e-65         179.985      1.10594e-65         179.985         0.999752          165.96
61.04                    1.00005        -171.738      1.10595e-65         179.984      1.10595e-65         179.984         0.999759         165.865
61.05                    1.00006        -172.132      1.10595e-65         179.983      1.10595e-65         179.983         0.999766         165.771
61.06                    1.00006        -172.546      1.10595e-65         179.982      1.10595e-65         179.982         0.999772         165.678
61.07                    1.00007        -172.981      1.10595e-65          179.98      1.10595e-65          179.98         0.999779         165.588
61.08                    1.00007        -173.439      1.10595e-65         179.979      1.10595e-65         179.979         0.999786           165.5
61.09                    1.00008        -173.922      1.10596e-65         179.977      1.10596e-65         179.977         0.999792         165.413
61.1                     1.00009        -174.432      1.10596e-65         179.975      1.10596e-65         179.975         0.999799         165.328
61.11                    1.00009        -174.971      1.10596e-65         179.974      1.10596e-65         179.974         0.999805         165.245
61.12                     1.0001        -175.541      1.10596e-65         179.972      1.10596e-65         179.972         0.999812         165.163
61.13                    1.00011        -176.147      1.10596e-65          179.97      1.10596e-65          179.97         0.999818         165.083
61.14                    1.00012         -176.79      1.10596e-65         179.968      1.10596e-65         179.968         0.999824         165.004
61.15                    1.00013        -177.475                0               0                0               0          0.99983         164.926
61.16                    1.00014        -178.207      1.10596e-65         179.964      1.10596e-65         179.964         0.999836          164.85
61.17                    1.00015        -178.989      1.10596e-65         179.961      1.10596e-65         179.961         0.999842         164.775
61.18                    1.00016        -179.827      1.10596e-65         179.959      1.10596e-65         179.959         0.999847         164.701
61.19                    1.00018         179.272      1.10596e-65         179.956      1.10596e-65         179.956         0.999853         164.629
61.2                     1.00019         178.302      1.10596e-65         179.953      1.10596e-65         179.953         0.999858         164.557
61.21                    1.00021         177.253      1.10596e-65          179.95      1.10596e-65          179.95         0.999864         164.487
61.22                    1.00023         176.116      1.10595e-65         179.947      1.10595e-65         179.947         0.999869         164.418
61.23                    1.00026         174.879      1.10595e-65         179.944      1.10595e-65         179.944         0.999874          164.35
61.24                    1.00028          173.53      1.10594e-65          179.94      1.10594e-65          179.94         0.999879         164.282
61.25                    1.00031         172.051      1.10593e-65         179.935      1.10593e-65         179.935         0.999884         164.216
61.26                    1.00034         170.424      1.10591e-65         179.931      1.10591e-65         179.931         0.999889         164.151
61.27                    1.00038         168.626       1.1059e-65         179.926       1.1059e-65         179.926         0.999894         164.086
61.28                    1.00043         166.629      1.10587e-65          179.92      1.10587e-65          179.92         0.999898         164.022
61.29                    1.00048         164.399      1.10584e-65         179.914      1.10584e-65         179.914         0.999903         163.959
61.3                     1.00054         161.895       1.1058e-65         179.907       1.1058e-65         179.907         0.999907         163.897
61.31                    1.00061         159.064      1.10575e-65           179.9      1.10575e-65           179.9         0.999911         163.836
61.32                    1.00069         155.841      1.10569e-65         179.892      1.10569e-65         179.892         0.999915         163.775
61.33                     1.0008         152.147       1.1056e-65         179.882       1.1056e-65         179.882         0.999919         163.714
61.34                    1.00092         147.875      1.00499e-65         179.872      1.00499e-65         179.872         0.999923         163.655
61.35                    1.00107         142.896      1.00485e-65         179.861      1.00485e-65         179.861         0.999927         163.596
61.36                    1.00125         137.037      1.00467e-65         179.848      1.00467e-65         179.848         0.999931         163.537
61.37                    1.00146         130.084      1.00443e-65         179.835      1.00443e-65         179.835         0.999934         163.479
61.38                    1.00173         121.763       1.0041e-65         179.821       1.0041e-65         179.821         0.999938         163.421
61.39                    1.00205         111.743      1.00367e-65         179.808      1.00367e-65         179.808         0.999941         163.363
61.4                     1.00242         99.6483      1.00311e-65         179.799      1.00311e-65         179.799         0.999945         163.306
61.41                    1.00281         85.1218      1.00241e-65         179.797      1.00241e-65         179.797         0.999948         163.249
61.42                    1.00317         67.9633      1.00161e-65         179.808      1.00161e-65         179.808         0.999951         163.192
61.43                     1.0034         48.3548       1.0008e-65         179.836       1.0008e-65         179.836         0.999954         163.136
61.44                    1.00341         27.0709      1.00018e-65         179.882      1.00018e-65         179.882         0.999957         163.079
61.45                    1.00315          5.4373      9.99884e-66         179.939      9.99884e-66         179.939         0.999959         163.022
61.46                    1.00268        -15.0899      9.99968e-66         179.995      9.99968e-66         179.995         0.999962         162.966
61.47                    1.00212         -33.451      1.00033e-65        -179.959      1.00033e-65        -179.959         0.999964         162.909
61.48                    1.00157         -49.206      1.00083e-65        -179.927      1.00083e-65        -179.927         0.999967         162.852
61.49                    1.00108        -62.4089      1.00136e-65        -179.906      1.00136e-65        -179.906         0.999969         162.794
61.5                     1.00066        -73.3674      1.00185e-65        -179.895      1.00185e-65        -179.895         0.999971         162.736
61.51                    1.00031        -82.4598      1.00228e-65         -179.89      1.00228e-65         -179.89         0.999973         162.677
61.52                          1        -90.0418                0               0                0               0         0.999975         162.617
61.53                   0.999722         -96.414      1.00295e-65        -179.891      1.00295e-65        -179.891         0.999977         162.556
61.54                   0.999455        -101.818       1.0032e-65        -179.893       1.0032e-65        -179.893         0.999979         162.494
61.55                   0.999187        -106.442      1.00342e-65        -179.896      1.00342e-65        -179.896         0.999981          162.43
61.56                   0.998914        -110.435       1.0036e-65          -179.9       1.0036e-65          -179.9         0.999982         162.364
61.57                   0.998648        -113.912      1.00375e-65        -179.904      1.00375e-65        -179.904         0.999983         162.296
61.58                   0.998438        -116.961      1.00388e-65        -179.908      1.00388e-65        -179.908         0.999985         162.226
61.59                   0.998363        -119.656      1.00399e-65        -179.912      1.00399e-65        -179.912         0.999986         162.151
61.6                    0.998481        -122.061      1.00409e-65        -179.915      1.00409e-65        -179.915         0.999987         162.073
61.61                   0.998756        -124.229      1.00418e-65        -179.919      1.00418e-65        -179.919         0.999988          161.99
61.62                   0.999079          -126.2      1.00426e-65        -179.922      1.00426e-65        -179.922         0.999988           161.9
61.63                    0.99936        -128.004      1.00432e-65        -179.925      1.00432e-65        -179.925         0.999989         161.802
61.64                   0.999571        -129.663      9.03946e-66        -179.928      9.03946e-66        -179.928         0.999989         161.694
61.65                   0.999718        -131.196      9.03995e-66        -179.931      9.03995e-66        -179.931         0.999989         161.574
61.66                   0.999817        -132.619      9.04039e-66        -179.934      9.04039e-66        -179.934         0.999988         161.436
61.67                   0.999883         -133.95      9.04079e-66        -179.937      9.04079e-66        -179.937         0.999987         161.274
61.68                   0.999926          -135.2      9.04115e-66         -179.94      9.04115e-66         -179.94         0.999986         161.081
61.69                   0.999955        -136.382      9.04147e-66        -179.943      9.04147e-66        -179.943         0.999983          160.84
61.7                    0.999973        -137.507      9.04176e-66        -179.946      9.04176e-66        -179.946          0.99998         160.526
61.71                   0.999985        -138.584      9.04201e-66        -179.949      9.04201e-66        -179.949         0.999974         160.095
61.72                   0.999992        -139.624       9.0422e-66        -179.953       9.0422e-66        -179.953         0.999965         159.449
61.73                   0.999996        -140.635      9.04231e-66        -179.958      9.04231e-66        -179.958         0.999947          158.35
61.74                   0.999998        -141.626      9.04219e-66        -179.966      9.04219e-66        -179.966         0.999906         156.003
61.75                   0.999998        -142.606                0               0                0               0          0.99971         147.158
61.76                   0.999998        -143.584                0               0                0               0                1        -162.581
61.77                   0.999996         -144.57      8.03978e-66        -179.935      8.03978e-66        -179.935                1         170.434
61.78                   0.999994        -145.576      8.03973e-66        -179.947      8.03973e-66        -179.947                1          166.81
61.79                   0.999991        -146.615      8.03982e-66        -179.953      8.03982e-66        -179.953                1         165.366
61.8                    0.999988        -147.703      8.03997e-66        -179.958      8.03997e-66        -179.958                1         164.579
61.81                   0.999984        -148.861      8.04015e-66        -179.962      8.04015e-66        -179.962                1         164.079
61.82                    0.99998        -150.114      8.04035e-66        -179.966      8.04035e-66        -179.966                1         163.728
61.83                   0.999976        -151.497      8.04059e-66         -179.97      8.04059e-66         -179.97                1         163.466
61.84                   0.999971        -153.056      8.04084e-66        -179.974      8.04084e-66        -179.974                1          163.26
61.85                   0.999965        -154.859      7.03599e-66        -179.979      7.03599e-66        -179.979                1         163.093
61.86                   0.999958        -157.006      7.03627e-66        -179.985      7.03627e-66        -179.985                1         162.953
61.87                    0.99995        -159.653      7.03658e-66        -179.992      7.03658e-66        -179.992                1         162.833
61.88                   0.999939        -163.058      7.03694e-66         179.999      7.03694e-66         179.999                1         162.728
61.89                   0.999925        -167.678      7.03732e-66         179.987      7.03732e-66         179.987                1         162.635
61.9                    0.999904        -174.409      7.03767e-66         179.968      7.03767e-66         179.968                1         162.551
61.91                    0.99987         174.765      7.03767e-66         179.938      7.03767e-66         179.938                1         162.475
61.92                   0.999811         154.657      7.03589e-66         179.885      7.03589e-66         179.885                1         162.406
61.93                   0.999727         109.566      7.02491e-66         179.804      7.02491e-66         179.804                1         162.341
61.94                    0.99986         16.6274                0               0                0               0                1         162.281
61.95                    1.00006        -58.4165      7.00831e-66        -179.913      7.00831e-66        -179.913         0.999999         162.225
61.96                    1.00007        -90.6638      7.01865e-66         -179.89      7.01865e-66         -179.89         0.999995         162.172
61.97                    1.00006          -106.1      7.02378e-66        -179.897      7.02378e-66        -179.897         0.999991         162.122