! TOUCHSTONE file generated by CST MICROWAVE STUDIO
! Date and time: Sat Feb 17 15:53:19 2024
! Project name: metal_rotado.cst
! Parameters = {PX=2; angX=2; angY=2}
! Header version: 2018
! Port assignment regex: !\s*Touchstone port\s*([0-9]+)\s*=\s*(CST MWS port|CST DS port)\s*([0-9]+|Zmin|Zmax)\s*\(\"(.*)\"\)(\s*mode\s*([0-9]+))?.*
! Touchstone port assignment:
! Touchstone port 1 = CST MWS port 1 ("")
! Touchstone port 2 = CST MWS port 2 ("")
# GHz S MA R 376.7
60                      0.999958        -154.928      1.50586e-65         179.908      1.50586e-65         179.908                1         109.956
60.01                   0.999795        -155.365      1.50564e-65         179.903      1.50564e-65         179.903                1         106.915
60.02                   0.999723        -155.704      1.50538e-65           179.9      1.50538e-65           179.9                1         103.489
60.03                   0.999697        -155.978      1.50508e-65         179.896      1.50508e-65         179.896                1         99.6059
60.04                   0.999695        -156.206      1.50473e-65         179.894      1.50473e-65         179.894                1         95.1794
60.05                   0.999706        -156.401      1.50432e-65         179.893      1.50432e-65         179.893                1         90.1019
60.06                   0.999723         -156.57      1.50384e-65         179.893      1.50384e-65         179.893                1         84.2429
60.07                   0.999743        -156.721       1.5033e-65         179.896       1.5033e-65         179.896                1         77.4447
60.08                   0.999765        -156.856      1.50268e-65         179.902      1.50268e-65         179.902                1         69.5223
60.09                   0.999786        -156.979        1.502e-65         179.914        1.502e-65         179.914                1         60.2678
60.1                    0.999807        -157.092      1.50128e-65         179.933      1.50128e-65         179.933                1         49.4687
60.11                   0.999827        -157.198      1.50058e-65         179.961      1.50058e-65         179.961                1         36.9469
60.12                   0.999845        -157.297          1.5e-65             180          1.5e-65             180                1         22.6278
60.13                   0.999863         -157.39      1.49967e-65        -179.952      1.49967e-65        -179.952                1         6.63482
60.14                   0.999879         -157.48      1.49973e-65        -179.899      1.49973e-65        -179.899                1        -10.6287
60.15                   0.999894        -157.565       1.4002e-65        -179.847       1.4002e-65        -179.847                1        -28.4775
60.16                   0.999908        -157.648      1.40102e-65        -179.803      1.40102e-65        -179.803                1        -46.0752
60.17                   0.999921        -157.728      1.40205e-65        -179.774      1.40205e-65        -179.774                1         -62.652
60.18                   0.999933        -157.805      1.40313e-65        -179.758      1.40313e-65        -179.758                1        -77.6826
60.19                   0.999944        -157.881      1.40414e-65        -179.754      1.40414e-65        -179.754                1        -90.9367
60.2                    0.999954        -157.955      1.40501e-65        -179.759      1.40501e-65        -179.759                1         -102.42
60.21                   0.999963        -158.028      1.40573e-65        -179.768      1.40573e-65        -179.768                1        -112.279
60.22                   0.999971          -158.1      1.40631e-65         -179.78      1.40631e-65         -179.78                1        -120.718
60.23                   0.999979        -158.171      1.40676e-65        -179.793      1.40676e-65        -179.793                1        -127.949
60.24                   0.999986        -158.242      1.40712e-65        -179.806      1.40712e-65        -179.806                1         -134.17
60.25                   0.999993        -158.311      1.40741e-65        -179.818      1.40741e-65        -179.818                1        -139.548
60.26                   0.999999        -158.381      1.40763e-65         -179.83      1.40763e-65         -179.83                1        -144.224
60.27                          1         -158.45       1.4078e-65        -179.841       1.4078e-65        -179.841                1        -148.316
60.28                          1        -158.519      1.40794e-65        -179.851      1.40794e-65        -179.851                1        -151.917
60.29                          1        -158.588      1.40805e-65         -179.86      1.40805e-65         -179.86                1        -155.106
60.3                           1        -158.657               -0             180               -0             180                1        -157.946
60.31                          1        -158.726      1.40821e-65        -179.876      1.40821e-65        -179.876                1        -160.488
60.32                          1        -158.795      1.40827e-65        -179.883      1.40827e-65        -179.883                1        -162.774
60.33                          1        -158.865      1.40831e-65        -179.889      1.40831e-65        -179.889                1        -164.841
60.34                          1        -158.935      1.40835e-65        -179.895      1.40835e-65        -179.895                1        -166.717
60.35                          1        -159.005      1.40838e-65          -179.9      1.40838e-65          -179.9                1        -168.427
60.36                          1        -159.076      1.40841e-65        -179.905      1.40841e-65        -179.905                1        -169.991
60.37                          1        -159.148      1.40843e-65         -179.91      1.40843e-65         -179.91                1        -171.427
60.38                          1         -159.22      1.40844e-65        -179.914      1.40844e-65        -179.914                1        -172.751
60.39                          1        -159.292      1.40845e-65        -179.918      1.40845e-65        -179.918                1        -173.973
60.4                           1        -159.366      1.40846e-65        -179.922      1.40846e-65        -179.922                1        -175.106
60.41                          1         -159.44      1.40847e-65        -179.925      1.40847e-65        -179.925                1        -176.158
60.42                          1        -159.515      1.40848e-65        -179.929      1.40848e-65        -179.929                1        -177.139
60.43                          1        -159.591      1.40848e-65        -179.932      1.40848e-65        -179.932                1        -178.054
60.44                          1        -159.667      1.40849e-65        -179.935      1.40849e-65        -179.935                1        -178.911
60.45                          1        -159.745      1.40849e-65        -179.937      1.40849e-65        -179.937                1        -179.715
60.46                          1        -159.824      1.30789e-65         -179.94      1.30789e-65         -179.94                1          179.53
60.47                          1        -159.904      1.30789e-65        -179.942      1.30789e-65        -179.942                1         178.819
60.48                          1        -159.985      1.30789e-65        -179.945      1.30789e-65        -179.945                1         178.149
60.49                          1        -160.067      1.30789e-65        -179.947      1.30789e-65        -179.947                1         177.515
60.5                           1         -160.15      1.30789e-65        -179.949      1.30789e-65        -179.949                1         176.916
60.51                          1        -160.235      1.30789e-65        -179.951      1.30789e-65        -179.951                1         176.348
60.52                          1         -160.32      1.30789e-65        -179.953      1.30789e-65        -179.953                1         175.808
60.53                          1        -160.408      1.30789e-65        -179.955      1.30789e-65        -179.955                1         175.296
60.54                          1        -160.496      1.30789e-65        -179.957      1.30789e-65        -179.957                1         174.808
60.55                          1        -160.587      1.30789e-65        -179.958      1.30789e-65        -179.958                1         174.344
60.56                          1        -160.678      1.30788e-65         -179.96      1.30788e-65         -179.96                1           173.9
60.57                          1        -160.772      1.30788e-65        -179.962      1.30788e-65        -179.962                1         173.477
60.58                          1        -160.867      1.30788e-65        -179.963      1.30788e-65        -179.963                1         173.072
60.59                          1        -160.963      1.30788e-65        -179.965      1.30788e-65        -179.965                1         172.685
60.6                           1        -161.062      1.30788e-65        -179.966      1.30788e-65        -179.966                1         172.313
60.61                          1        -161.162      1.30788e-65        -179.967      1.30788e-65        -179.967                1         171.957
60.62                          1        -161.265                0               0                0               0                1         171.616
60.63                          1        -161.369      1.30788e-65         -179.97      1.30788e-65         -179.97                1         171.287
60.64                          1        -161.476      1.30788e-65        -179.971      1.30788e-65        -179.971                1         170.972
60.65                          1        -161.584      1.30787e-65        -179.973      1.30787e-65        -179.973         0.999999         170.668
60.66                          1        -161.695      1.30787e-65        -179.974      1.30787e-65        -179.974         0.999999         170.375
60.67                          1        -161.808      1.30787e-65        -179.975      1.30787e-65        -179.975         0.999999         170.093
60.68                          1        -161.924      1.30787e-65        -179.976      1.30787e-65        -179.976         0.999999         169.821
60.69                          1        -162.042      1.30787e-65        -179.977      1.30787e-65        -179.977         0.999999         169.558
60.7                           1        -162.162      1.30787e-65        -179.978      1.30787e-65        -179.978         0.999998         169.304
60.71                          1        -162.285      1.30787e-65         -179.98      1.30787e-65         -179.98         0.999998         169.059
60.72                          1        -162.412      1.30787e-65        -179.981      1.30787e-65        -179.981         0.999998         168.822
60.73                          1        -162.541      1.30787e-65        -179.982      1.30787e-65        -179.982         0.999998         168.592
60.74                          1        -162.672      1.30787e-65        -179.983      1.30787e-65        -179.983         0.999998         168.369
60.75                          1        -162.808      1.30787e-65        -179.984      1.30787e-65        -179.984         0.999998         168.154
60.76                          1        -162.946      1.30787e-65        -179.985      1.30787e-65        -179.985         0.999997         167.945
60.77                          1        -163.088      1.30787e-65        -179.986      1.30787e-65        -179.986         0.999997         167.742
60.78                          1        -163.233      1.30787e-65        -179.987      1.30787e-65        -179.987         0.999997         167.545
60.79                          1        -163.382      1.30787e-65        -179.988      1.30787e-65        -179.988         0.999997         167.354
60.8                           1        -163.535      1.30787e-65        -179.989      1.30787e-65        -179.989         0.999997         167.168
60.81                          1        -163.691      1.30787e-65         -179.99      1.30787e-65         -179.99         0.999997         166.988
60.82                          1        -163.852      1.30787e-65        -179.991      1.30787e-65        -179.991         0.999997         166.812
60.83                          1        -164.017      1.30787e-65        -179.992      1.30787e-65        -179.992         0.999997         166.641
60.84                          1        -164.187      1.30787e-65        -179.993      1.30787e-65        -179.993         0.999997         166.475
60.85                          1        -164.361      1.30787e-65        -179.994      1.30787e-65        -179.994         0.999997         166.313
60.86                          1         -164.54      1.30787e-65        -179.995      1.30787e-65        -179.995         0.999996         166.155
60.87                          1        -164.725      1.30787e-65        -179.996      1.30787e-65        -179.996         0.999996         166.001
60.88                          1        -164.914      1.30787e-65        -179.997      1.30787e-65        -179.997         0.999996         165.851
60.89                          1         -165.11      1.30788e-65        -179.998      1.30788e-65        -179.998         0.999996         165.704
60.9                           1        -165.311      1.30788e-65        -179.999      1.30788e-65        -179.999         0.999996         165.561
60.91                          1        -165.518      1.30788e-65             180      1.30788e-65             180         0.999996         165.421
60.92                          1        -165.732      1.30788e-65         179.999      1.30788e-65         179.999         0.999996         165.285
60.93                          1        -165.953      1.30788e-65         179.998      1.30788e-65         179.998         0.999996         165.152
60.94                          1         -166.18      1.30788e-65         179.997      1.30788e-65         179.997         0.999996         165.021
60.95                          1        -166.416      1.30788e-65         179.995      1.30788e-65         179.995         0.999996         164.894
60.96                          1        -166.658      1.30789e-65         179.994      1.30789e-65         179.994         0.999996         164.769
60.97                          1         -166.91      1.30789e-65         179.993      1.30789e-65         179.993         0.999996         164.647
60.98                          1         -167.17      1.30789e-65         179.992      1.30789e-65         179.992         0.999996         164.527
60.99                          1        -167.439      1.30789e-65         179.991      1.30789e-65         179.991         0.999996          164.41
61                             1        -167.718      1.20729e-65          179.99      1.20729e-65          179.99         0.999996         164.296
61.01                          1        -168.007      1.20729e-65         179.988      1.20729e-65         179.988         0.999996         164.183
61.02                          1        -168.307      1.20729e-65         179.987      1.20729e-65         179.987         0.999996         164.073
61.03                          1        -168.618      1.20729e-65         179.986      1.20729e-65         179.986         0.999996         163.965
61.04                          1        -168.941      1.20729e-65         179.985      1.20729e-65         179.985         0.999996         163.859
61.05                          1        -169.278       1.2073e-65         179.983       1.2073e-65         179.983         0.999996         163.755
61.06                          1        -169.628       1.2073e-65         179.982       1.2073e-65         179.982         0.999996         163.652
61.07                          1        -169.992       1.2073e-65         179.981       1.2073e-65         179.981         0.999996         163.552
61.08                   0.999999        -170.372       1.2073e-65         179.979       1.2073e-65         179.979         0.999996         163.453
61.09                   0.999999        -170.769      1.20731e-65         179.978      1.20731e-65         179.978         0.999996         163.356
61.1                    0.999998        -171.183      1.20731e-65         179.976      1.20731e-65         179.976         0.999996         163.261
61.11                   0.999998        -171.617      1.20731e-65         179.974      1.20731e-65         179.974         0.999996         163.167
61.12                   0.999997         -172.07      1.20731e-65         179.973      1.20731e-65         179.973         0.999996         163.075
61.13                   0.999997        -172.545      1.20732e-65         179.971      1.20732e-65         179.971         0.999996         162.984
61.14                   0.999996        -173.044      1.20732e-65         179.969      1.20732e-65         179.969         0.999996         162.895
61.15                   0.999996        -173.567      1.20732e-65         179.967      1.20732e-65         179.967         0.999996         162.806
61.16                   0.999995        -174.118      1.20732e-65         179.965      1.20732e-65         179.965         0.999996          162.72
61.17                   0.999995        -174.698      1.20733e-65         179.963      1.20733e-65         179.963         0.999996         162.634
61.18                   0.999995         -175.31      1.20733e-65         179.961      1.20733e-65         179.961         0.999996          162.55
61.19                   0.999994        -175.956      1.20733e-65         179.959      1.20733e-65         179.959         0.999996         162.466
61.2                    0.999994         -176.64      1.20733e-65         179.957      1.20733e-65         179.957         0.999996         162.384
61.21                   0.999994        -177.364      1.20733e-65         179.954      1.20733e-65         179.954         0.999996         162.303
61.22                   0.999993        -178.133      1.20733e-65         179.951      1.20733e-65         179.951         0.999996         162.223
61.23                   0.999993        -178.951      1.20733e-65         179.949      1.20733e-65         179.949         0.999996         162.144
61.24                   0.999993        -179.823      1.20733e-65         179.946      1.20733e-65         179.946         0.999997         162.065
61.25                   0.999993         179.245      1.20733e-65         179.943      1.20733e-65         179.943         0.999997         161.988
61.26                   0.999993         178.248      1.20733e-65         179.939      1.20733e-65         179.939         0.999997         161.911
61.27                   0.999993         177.179      1.20732e-65         179.936      1.20732e-65         179.936         0.999997         161.835
61.28                   0.999992         176.028      1.20732e-65         179.932      1.20732e-65         179.932         0.999997          161.76
61.29                   0.999992         174.786      1.20731e-65         179.928      1.20731e-65         179.928         0.999997         161.685
61.3                    0.999992         173.443       1.2073e-65         179.923       1.2073e-65         179.923         0.999997         161.611
61.31                   0.999992         171.985      1.20728e-65         179.919      1.20728e-65         179.919         0.999997         161.537
61.32                   0.999993         170.398      1.20727e-65         179.914      1.20727e-65         179.914         0.999997         161.464
61.33                   0.999993         168.662      1.20724e-65         179.908      1.20724e-65         179.908         0.999997         161.391
61.34                   0.999993         166.758      1.20722e-65         179.902      1.20722e-65         179.902         0.999997         161.319
61.35                   0.999994         164.659      1.20718e-65         179.896      1.20718e-65         179.896         0.999997         161.247
61.36                   0.999994         162.336      1.20714e-65         179.888      1.20714e-65         179.888         0.999998         161.175
61.37                   0.999995         159.752                0               0                0               0         0.999998         161.103
61.38                   0.999996         156.862      1.20701e-65         179.872      1.20701e-65         179.872         0.999998         161.031
61.39                   0.999998         153.612      1.20692e-65         179.863      1.20692e-65         179.863         0.999998         160.959
61.4                           1         149.935       1.2068e-65         179.852       1.2068e-65         179.852         0.999998         160.887
61.41                          1         145.748      1.20666e-65         179.841      1.20666e-65         179.841         0.999998         160.815
61.42                          1          140.95      1.20647e-65         179.829      1.20647e-65         179.829         0.999998         160.742
61.43                          1         135.413      1.20622e-65         179.816      1.20622e-65         179.816         0.999998         160.669
61.44                          1         128.982      1.20591e-65         179.802      1.20591e-65         179.802         0.999998         160.595
61.45                          1         121.471      1.20551e-65         179.788      1.20551e-65         179.788         0.999999          160.52
61.46                          1         112.658      1.10458e-65         179.776      1.10458e-65         179.776         0.999999         160.444
61.47                          1         102.302      1.10398e-65         179.766      1.10398e-65         179.766         0.999999         160.367
61.48                          1         90.1697      1.10326e-65         179.761      1.10326e-65         179.761         0.999999         160.288
61.49                          1          76.098      1.10242e-65         179.766      1.10242e-65         179.766         0.999999         160.208
61.5                           1         60.0962      1.10153e-65         179.784      1.10153e-65         179.784         0.999999         160.125
61.51                          1         42.4633       1.1007e-65         179.818       1.1007e-65         179.818         0.999999          160.04
61.52                          1         23.8482      1.10009e-65         179.866      1.10009e-65         179.866                1         159.951
61.53                          1         5.15981      1.09981e-65         179.922      1.09981e-65         179.922                1         159.859
61.54                          1        -12.6734      1.09987e-65         179.978      1.09987e-65         179.978                1         159.763
61.55                          1        -28.9575      1.10022e-65        -179.975      1.10022e-65        -179.975                1         159.661
61.56                          1        -43.3462      1.10073e-65        -179.939      1.10073e-65        -179.939                1         159.553
61.57                          1        -55.7974      1.10129e-65        -179.914      1.10129e-65        -179.914                1         159.437
61.58                          1        -66.4572      1.10185e-65        -179.899      1.10185e-65        -179.899                1         159.312
61.59                          1        -75.5547      1.10237e-65         -179.89      1.10237e-65         -179.89                1         159.174
61.6                           1        -83.3334      1.10282e-65        -179.886      1.10282e-65        -179.886                1         159.022
61.61                          1         -90.018      1.10322e-65        -179.886      1.10322e-65        -179.886                1          158.85
61.62                          1        -95.8018      1.10356e-65        -179.887      1.10356e-65        -179.887                1         158.652
61.63                          1        -100.845      1.00351e-65         -179.89      1.00351e-65         -179.89                1         158.421
61.64                          1         -105.28      1.00374e-65        -179.894      1.00374e-65        -179.894                1         158.143
61.65                          1        -109.212      1.00393e-65        -179.899      1.00393e-65        -179.899                1         157.797
61.66                          1        -112.729       1.0041e-65        -179.904       1.0041e-65        -179.904                1          157.35
61.67                          1        -115.902      1.00425e-65         -179.91      1.00425e-65         -179.91                1          156.74
61.68                          1        -118.788      1.00437e-65        -179.916      1.00437e-65        -179.916                1         155.845
61.69                          1        -121.437      1.00446e-65        -179.925      1.00446e-65        -179.925                1         154.377
61.7                           1         -123.89       1.0045e-65        -179.937       1.0045e-65        -179.937                1         151.472
61.71                   0.999997        -126.182      1.00435e-65        -179.964      1.00435e-65        -179.964                1         142.792
61.72                          1        -128.348                0               0                0               0         0.998935        -36.0371
61.73                          1        -130.425      9.04642e-66        -179.875      9.04642e-66        -179.875          0.99988         176.423
61.74                          1         -132.33      9.04659e-66        -179.904      9.04659e-66        -179.904         0.999936          168.26
61.75                          1        -134.243      9.04696e-66        -179.917      9.04696e-66        -179.917         0.999952         165.454
61.76                          1        -136.124      9.04743e-66        -179.925      9.04743e-66        -179.925         0.999959         164.022
61.77                          1        -137.991      9.04793e-66        -179.932      9.04793e-66        -179.932         0.999963         163.147
61.78                          1         -139.87      9.04845e-66        -179.938      9.04845e-66        -179.938         0.999965          162.55
61.79                          1        -141.785      9.04898e-66        -179.944      9.04898e-66        -179.944         0.999966         162.113
61.8                           1        -143.769      9.04952e-66         -179.95      9.04952e-66         -179.95         0.999966         161.777
61.81                          1        -145.856      9.05007e-66        -179.956      9.05007e-66        -179.956         0.999967         161.507
61.82                          1         -148.09        8.045e-66        -179.963        8.045e-66        -179.963         0.999967         161.285
61.83                          1         -150.53      8.04552e-66         -179.97      8.04552e-66         -179.97         0.999969         161.097
61.84                          1        -153.251      8.04606e-66        -179.978      8.04606e-66        -179.978         0.999971         160.935
61.85                          1        -156.358      8.04661e-66        -179.987      8.04661e-66        -179.987         0.999974         160.792
61.86                          1        -159.999      8.04719e-66        -179.998      8.04719e-66        -179.998         0.999979         160.665
61.87                   0.999982        -164.398      8.04775e-66         179.989      8.04775e-66         179.989         0.999985         160.551
61.88                   0.999955        -169.899      8.04827e-66         179.972      8.04827e-66         179.972         0.999992         160.446
61.89                   0.999921        -177.067      8.04861e-66         179.949      8.04861e-66         179.949                1         160.349
61.9                    0.999878         173.124      8.04845e-66         179.918      8.04845e-66         179.918                1         160.259
61.91                   0.999824         158.914      8.04695e-66         179.875      8.04695e-66         179.875                1         160.175
61.92                   0.999773         137.043      7.03667e-66         179.818      7.03667e-66         179.818                1         160.096
61.93                   0.999783         102.279       7.0253e-66         179.764       7.0253e-66         179.764         0.999994         160.022
61.94                   0.999978         51.9731                0               0                0               0         0.999981         159.951
61.95                          1       -0.986221      6.99868e-66         179.942      6.99868e-66         179.942         0.999966         159.885
61.96                          1        -39.8747      7.00378e-66        -179.947      7.00378e-66        -179.947         0.999953         159.822
61.97                          1        -64.4416      7.01115e-66          -179.9      7.01115e-66          -179.9         0.999942         159.763