! TOUCHSTONE file generated by CST MICROWAVE STUDIO
! Date and time: Sun Mar  3 12:20:17 2024
! Project name: aire_def.cst
! Parameters = {d=8.6}
! Header version: 2018
! Port assignment regex: !\s*Touchstone port\s*([0-9]+)\s*=\s*(CST MWS port|CST DS port)\s*([0-9]+|Zmin|Zmax)\s*\(\"(.*)\"\)(\s*mode\s*([0-9]+))?.*
! Touchstone port assignment:
! Touchstone port 1 = CST MWS port 1 ("")
! Touchstone port 2 = CST MWS port 2 ("")
# GHz S MA R 376.7
60                   0.000198049        -117.622         0.999566         158.534                1         158.549      0.000147892        -66.1779
60.01                0.000191215        -118.004          0.99957         158.501                1         158.516      0.000143282         -64.002
60.02                0.000184386        -118.412         0.999574         158.467                1         158.482      0.000138896        -61.6844
60.03                0.000177562        -118.851         0.999578         158.434                1         158.448      0.000134756        -59.2194
60.04                0.000170743        -119.323         0.999582         158.401                1         158.415      0.000130886        -56.6027
60.05                0.000163932        -119.833         0.999585         158.367                1         158.381      0.000127308        -53.8322
60.06                 0.00015713        -120.386         0.999589         158.334                1         158.348      0.000124049        -50.9085
60.07                0.000150339        -120.987         0.999593         158.301                1         158.314      0.000121135        -47.8352
60.08                 0.00014356        -121.643         0.999597         158.267                1         158.281      0.000118589          -44.62
60.09                0.000136797        -122.363           0.9996         158.234                1         158.247      0.000116438        -41.2749
60.1                 0.000130053        -123.155         0.999604         158.201                1         158.214      0.000114702        -37.8163
60.11                 0.00012333        -124.033         0.999608         158.167                1          158.18        0.0001134         -34.265
60.12                0.000116635        -125.009         0.999612         158.134                1         158.147      0.000112547        -30.6461
60.13                0.000109972        -126.102         0.999615         158.101                1         158.113      0.000112154        -26.9874
60.14                0.000103349        -127.334         0.999619         158.067                1         158.079      0.000112224        -23.3188
60.15                9.67742e-05        -128.731         0.999623         158.034                1         158.046      0.000112757        -19.6707
60.16                9.02601e-05        -130.328         0.999626         158.001                1         158.012      0.000113745        -16.0725
60.17                8.38213e-05         -132.17          0.99963         157.967                1         157.979      0.000115178        -12.5512
60.18                7.74777e-05        -134.314         0.999633         157.934                1         157.945      0.000117038        -9.13027
60.19                7.12558e-05        -136.833         0.999637         157.901                1         157.912      0.000119305        -5.82922
60.2                 6.51919e-05        -139.825         0.999641         157.867                1         157.878      0.000121955        -2.66289
60.21                5.93355e-05        -143.415         0.999644         157.834                1         157.845      0.000124966        0.358318
60.22                 5.3756e-05        -147.769         0.999648         157.801                1         157.811      0.000128309         3.22817
60.23                4.85506e-05        -153.089         0.999651         157.767                1         157.778      0.000131961         5.94409
60.24                4.38545e-05        -159.614         0.999655         157.734                1         157.744      0.000135896         8.50659
60.25                3.98498e-05         -167.57         0.999658         157.701                1         157.711       0.00014009         10.9186
60.26                3.67654e-05        -177.074         0.999662         157.667                1         157.677      0.000144519         13.1849
60.27                3.48483e-05         172.041         0.999665         157.634                1         157.644      0.000149163         15.3115
60.28                3.42972e-05         160.357         0.999669         157.601                1          157.61      0.000154002         17.3054
60.29                3.51782e-05         148.779         0.999672         157.567                1         157.577      0.000159018          19.174
60.3                  3.7392e-05         138.164         0.999676         157.534                1         157.543      0.000164195         20.9248
60.31                4.07235e-05         129.001         0.999679         157.501                1          157.51      0.000169516         22.5655
60.32                4.49263e-05         121.377         0.999683         157.467                1         157.477       0.00017497         24.1035
60.33                4.97813e-05         115.138         0.999686         157.434                1         157.443      0.000180542         25.5459
60.34                5.51178e-05         110.051         0.999689         157.401                1          157.41      0.000186224         26.8995
60.35                  6.081e-05         105.881         0.999693         157.367                1         157.376      0.000192004         28.1708
60.36                 6.6768e-05         102.434         0.999696         157.334                1         157.343      0.000197874         29.3656
60.37                7.29276e-05         99.5557           0.9997         157.301                1         157.309      0.000203825         30.4896
60.38                7.92423e-05         97.1257         0.999703         157.267                1         157.276      0.000209851         31.5479
60.39                8.56787e-05          95.053         0.999706         157.234                1         157.242      0.000215944         32.5454
60.4                 9.22119e-05         93.2678          0.99971         157.201                1         157.209        0.0002221         33.4864
60.41                9.88231e-05         91.7162         0.999713         157.167                1         157.175      0.000228313          34.375
60.42                0.000105498         90.3564         0.999716         157.134                1         157.142      0.000234577         35.2149
60.43                0.000112227         89.1556         0.999719         157.101                1         157.108      0.000240889         36.0097
60.44                0.000118999         88.0879         0.999723         157.067                1         157.075      0.000247245         36.7624
60.45                 0.00012581         87.1324         0.999726         157.034                1         157.042       0.00025364         37.4759
60.46                0.000132652         86.2724         0.999729         157.001                1         157.008      0.000260073          38.153
60.47                0.000139522         85.4941         0.999732         156.967                1         156.975       0.00026654          38.796
60.48                0.000146417         84.7864         0.999736         156.934                1         156.941      0.000273038         39.4073
60.49                0.000153333         84.1399         0.999739         156.901                1         156.908      0.000279564         39.9889
60.5                 0.000160267         83.5469         0.999742         156.867                1         156.874      0.000286118         40.5427
60.51                0.000167218         83.0009         0.999745         156.834                1         156.841      0.000292695         41.0704
60.52                0.000174184         82.4962         0.999748         156.801                1         156.808      0.000299296         41.5738
60.53                0.000181164         82.0282         0.999752         156.767                1         156.774      0.000305917         42.0543
60.54                0.000188155          81.593         0.999755         156.734                1         156.741      0.000312558         42.5133
60.55                0.000195158         81.1869         0.999758         156.701                1         156.707      0.000319216         42.9521
60.56                 0.00020217         80.8071         0.999761         156.667                1         156.674      0.000325891         43.3718
60.57                0.000209192         80.4509         0.999764         156.634                1          156.64      0.000332581         43.7736
60.58                0.000216222          80.116         0.999767         156.601                1         156.607      0.000339286         44.1585
60.59                 0.00022326         79.8005          0.99977         156.567                1         156.574      0.000346003         44.5275
60.6                 0.000230305         79.5026         0.999773         156.534                1          156.54      0.000352732         44.8814
60.61                0.000237356         79.2206         0.999776           156.5                1         156.507      0.000359472          45.221
60.62                0.000244414         78.9534          0.99978         156.467                1         156.473      0.000366223         45.5471
60.63                0.000251477         78.6996         0.999783         156.434                1          156.44      0.000372982         45.8604
60.64                0.000258546         78.4581         0.999786           156.4                1         156.407      0.000379751         46.1617
60.65                 0.00026562         78.2279         0.999789         156.367                1         156.373      0.000386527         46.4514
60.66                0.000272698         78.0083         0.999792         156.334                1          156.34       0.00039331         46.7302
60.67                0.000279781         77.7983         0.999795           156.3                1         156.306        0.0004001         46.9986
60.68                0.000286867         77.5973         0.999798         156.267                1         156.273      0.000406896         47.2572
60.69                0.000293958         77.4046         0.999801         156.234                1          156.24      0.000413698         47.5064
60.7                 0.000301052         77.2196         0.999803           156.2                1         156.206      0.000420504         47.7466
60.71                 0.00030815         77.0418         0.999806         156.167                1         156.173      0.000427315         47.9783
60.72                 0.00031525         76.8708         0.999809         156.134                1         156.139       0.00043413         48.2019
60.73                0.000322354          76.706         0.999812           156.1                1         156.106      0.000440948         48.4177
60.74                0.000329461         76.5471         0.999815         156.067                1         156.073       0.00044777          48.626
60.75                 0.00033657         76.3936         0.999818         156.034                1         156.039      0.000454594         48.8274
60.76                0.000343681         76.2453         0.999821             156                1         156.006      0.000461421         49.0219
60.77                0.000350795         76.1018         0.999824         155.967                1         155.973      0.000468249         49.2099
60.78                0.000357911         75.9629         0.999827         155.933                1         155.939      0.000475079         49.3918
60.79                0.000365029         75.8283          0.99983           155.9                1         155.906      0.000481911         49.5677
60.8                 0.000372149         75.6976         0.999832         155.867                1         155.872      0.000488743         49.7379
60.81                0.000379271         75.5708         0.999835         155.833                1         155.839      0.000495576         49.9026
60.82                0.000386394         75.4476         0.999838           155.8                1         155.806       0.00050241          50.062
60.83                0.000393519         75.3277         0.999841         155.767                1         155.772      0.000509244         50.2165
60.84                0.000400645          75.211         0.999844         155.733                1         155.739      0.000516077         50.3661
60.85                0.000407772         75.0974         0.999846           155.7                1         155.706      0.000522911          50.511
60.86                0.000414901         74.9866         0.999849         155.667                1         155.672      0.000529744         50.6515
60.87                 0.00042203         74.8786         0.999852         155.633                1         155.639      0.000536575         50.7876
60.88                0.000429161         74.7731         0.999855           155.6                1         155.605      0.000543406         50.9196
60.89                0.000436292         74.6702         0.999857         155.567                1         155.572      0.000550236         51.0476
60.9                 0.000443424         74.5695          0.99986         155.533                1         155.539      0.000557064         51.1718
60.91                0.000450557          74.471         0.999863           155.5                1         155.505       0.00056389         51.2922
60.92                 0.00045769         74.3747         0.999865         155.466                1         155.472      0.000570715         51.4091
60.93                0.000464824         74.2804         0.999868         155.433                1         155.439      0.000577537         51.5225
60.94                0.000471958          74.188         0.999871           155.4                1         155.405      0.000584358         51.6326
60.95                0.000479093         74.0974         0.999873         155.366                1         155.372      0.000591176         51.7395
60.96                0.000486227         74.0086         0.999876         155.333                1         155.339      0.000597991         51.8432
60.97                0.000493362         73.9215         0.999879           155.3                1         155.305      0.000604803          51.944
60.98                0.000500496         73.8359         0.999881         155.266                1         155.272      0.000611613         52.0418
60.99                0.000507631         73.7519         0.999884         155.233                1         155.239      0.000618419         52.1368
61                   0.000514765         73.6693         0.999886           155.2                1         155.205      0.000625223         52.2291
61.01                0.000521899         73.5881         0.999889         155.166                1         155.172      0.000632023         52.3188
61.02                0.000529032         73.5082         0.999892         155.133                1         155.139      0.000638819         52.4059
61.03                0.000536165         73.4297         0.999894         155.099                1         155.105      0.000645612         52.4906
61.04                0.000543298         73.3523         0.999897         155.066                1         155.072      0.000652401         52.5728
61.05                 0.00055043         73.2761         0.999899         155.033                1         155.039      0.000659186         52.6528
61.06                0.000557561         73.2011         0.999902         154.999                1         155.005      0.000665967         52.7305
61.07                0.000564691         73.1271         0.999904         154.966                1         154.972      0.000672743          52.806
61.08                0.000571821         73.0542         0.999907         154.933                1         154.939      0.000679516         52.8794
61.09                0.000578949         72.9822         0.999909         154.899                1         154.905      0.000686284         52.9507
61.1                 0.000586077         72.9112         0.999912         154.866                1         154.872      0.000693047           53.02
61.11                0.000593203         72.8412         0.999914         154.833                1         154.839      0.000699806         53.0874
61.12                0.000600328          72.772         0.999917         154.799                1         154.805      0.000706559         53.1529
61.13                0.000607452         72.7037         0.999919         154.766                1         154.772      0.000713308         53.2166
61.14                0.000614574         72.6361         0.999921         154.732                1         154.739      0.000720052         53.2785
61.15                0.000621695         72.5694         0.999924         154.699                1         154.705      0.000726791         53.3386
61.16                0.000628814         72.5034         0.999926         154.666                1         154.672      0.000733524         53.3971
61.17                0.000635932         72.4382         0.999929         154.632                1         154.639      0.000740252         53.4539
61.18                0.000643047         72.3737         0.999931         154.599                1         154.605      0.000746974         53.5092
61.19                0.000650161         72.3098         0.999933         154.566                1         154.572      0.000753691         53.5628
61.2                 0.000657273         72.2466         0.999936         154.532                1         154.539      0.000760402          53.615
61.21                0.000664383          72.184         0.999938         154.499                1         154.505      0.000767108         53.6657
61.22                0.000671491          72.122         0.999941         154.466                1         154.472      0.000773807         53.7149
61.23                0.000678597         72.0606         0.999943         154.432                1         154.439        0.0007805         53.7628
61.24                0.000685701         71.9998         0.999945         154.399                1         154.405      0.000787187         53.8093
61.25                0.000692802         71.9395         0.999947         154.365                1         154.372      0.000793868         53.8544
61.26                  0.0006999         71.8797          0.99995         154.332                1         154.339      0.000800543         53.8983
61.27                0.000706997         71.8205         0.999952         154.299                1         154.305      0.000807211         53.9409
61.28                 0.00071409         71.7617         0.999954         154.265                1         154.272      0.000813873         53.9822
61.29                0.000721181         71.7034         0.999957         154.232                1         154.239      0.000820528         54.0224
61.3                 0.000728269         71.6456         0.999959         154.199                1         154.205      0.000827176         54.0613
61.31                0.000735354         71.5882         0.999961         154.165                1         154.172      0.000833817         54.0991
61.32                0.000742437         71.5312         0.999963         154.132                1         154.139      0.000840452         54.1358
61.33                0.000749516         71.4746         0.999965         154.099                1         154.105      0.000847079         54.1714
61.34                0.000756592         71.4184         0.999968         154.065                1         154.072      0.000853699         54.2059
61.35                0.000763665         71.3626          0.99997         154.032                1         154.039      0.000860312         54.2394
61.36                0.000770734         71.3072         0.999972         153.998                1         154.005      0.000866918         54.2718
61.37                  0.0007778         71.2521         0.999974         153.965                1         153.972      0.000873517         54.3032
61.38                0.000784863         71.1974         0.999976         153.932                1         153.939      0.000880107         54.3337
61.39                0.000791922          71.143         0.999978         153.898                1         153.906      0.000886691         54.3632
61.4                 0.000798977          71.089         0.999981         153.865                1         153.872      0.000893266         54.3917
61.41                0.000806029         71.0352         0.999983         153.832                1         153.839      0.000899834         54.4193
61.42                0.000813077         70.9818         0.999985         153.798                1         153.806      0.000906394         54.4461
61.43                 0.00082012         70.9286         0.999987         153.765                1         153.772      0.000912946         54.4719
61.44                 0.00082716         70.8757         0.999989         153.731                1         153.739       0.00091949         54.4969
61.45                0.000834196         70.8231         0.999991         153.698                1         153.706      0.000926026          54.521
61.46                0.000841227         70.7708         0.999993         153.665                1         153.672      0.000932554         54.5443
61.47                0.000848254         70.7187         0.999995         153.631                1         153.639      0.000939074         54.5668
61.48                0.000855277         70.6669         0.999997         153.598                1         153.606      0.000945585         54.5885
61.49                0.000862295         70.6152         0.999999         153.565                1         153.573      0.000952087         54.6094
61.5                 0.000869308         70.5639                1         153.531                1         153.539      0.000958581         54.6296
61.51                0.000876317         70.5127                1         153.498                1         153.506      0.000965066          54.649
61.52                0.000883321         70.4618                1         153.465                1         153.473      0.000971543         54.6676
61.53                 0.00089032          70.411                1         153.431                1         153.439      0.000978011         54.6856
61.54                0.000897314         70.3605                1         153.398                1         153.406      0.000984469         54.7028
61.55                0.000904304         70.3102                1         153.364                1         153.373      0.000990919         54.7193
61.56                0.000911287           70.26                1         153.331                1         153.339       0.00099736         54.7352
61.57                0.000918266         70.2101                1         153.298                1         153.306       0.00100379         54.7503
61.58                0.000925239         70.1603                1         153.264                1         153.273       0.00101021         54.7649
61.59                0.000932207         70.1107                1         153.231                1          153.24       0.00101663         54.7787
61.6                 0.000939169         70.0612                1         153.198                1         153.206       0.00102303          54.792
61.61                0.000946126         70.0119                1         153.164                1         153.173       0.00102942         54.8046
61.62                0.000953077         69.9628                1         153.131                1          153.14       0.00103581         54.8166
61.63                0.000960022         69.9138                1         153.097                1         153.106       0.00104218          54.828
61.64                0.000966961         69.8649                1         153.064                1         153.073       0.00104855         54.8388
61.65                0.000973894         69.8162                1         153.031                1          153.04        0.0010549          54.849
61.66                0.000980821         69.7676                1         152.997                1         153.006       0.00106125         54.8587
61.67                0.000987741         69.7192                1         152.964                1         152.973       0.00106758         54.8678
61.68                0.000994655         69.6709                1         152.931                1          152.94       0.00107391         54.8763
61.69                 0.00100156         69.6227                1         152.897                1         152.907       0.00108022         54.8843
61.7                  0.00100846         69.5746                1         152.864                1         152.873       0.00108653         54.8918
61.71                 0.00101536         69.5266                1         152.831                1          152.84       0.00109282         54.8987
61.72                 0.00102225         69.4787                1         152.797                1         152.807        0.0010991         54.9051
61.73                 0.00102913          69.431                1         152.764                1         152.773       0.00110538         54.9111
61.74                   0.001036         69.3833                1          152.73                1          152.74       0.00111164         54.9165
61.75                 0.00104287         69.3357                1         152.697                1         152.707       0.00111789         54.9214
61.76                 0.00104973         69.2882                1         152.664                1         152.674       0.00112413         54.9258
61.77                 0.00105658         69.2409                1          152.63                1          152.64       0.00113036         54.9298
61.78                 0.00106343         69.1936                1         152.597                1         152.607       0.00113658         54.9332
61.79                 0.00107026         69.1463                1         152.564                1         152.574       0.00114279         54.9363
61.8                  0.00107709         69.0992                1          152.53                1          152.54       0.00114899         54.9388
61.81                 0.00108391         69.0521                1         152.497                1         152.507       0.00115517         54.9409
61.82                 0.00109073         69.0051                1         152.463                1         152.474       0.00116134         54.9426
61.83                 0.00109754         68.9582                1          152.43                1         152.441       0.00116751         54.9438
61.84                 0.00110433         68.9114                1         152.397                1         152.407       0.00117366         54.9446
61.85                 0.00111112         68.8646                1         152.363                1         152.374        0.0011798          54.945
61.86                 0.00111791         68.8179                1          152.33                1         152.341       0.00118593         54.9449
61.87                 0.00112468         68.7712                1         152.297                1         152.307       0.00119204         54.9445
61.88                 0.00113145         68.7246                1         152.263                1         152.274       0.00119815         54.9436
61.89                  0.0011382          68.678                1          152.23                1         152.241       0.00120424         54.9423
61.9                  0.00114495         68.6315                1         152.196                1         152.208       0.00121032         54.9407
61.91                 0.00115169         68.5851                1         152.163                1         152.174       0.00121639         54.9386
61.92                 0.00115842         68.5387                1          152.13                1         152.141       0.00122244         54.9362
61.93                 0.00116514         68.4923                1         152.096                1         152.108       0.00122849         54.9333
61.94                 0.00117185          68.446                1         152.063                1         152.074       0.00123452         54.9301
61.95                 0.00117856         68.3997                1          152.03                1         152.041       0.00124054         54.9266
61.96                 0.00118525         68.3535                1         151.996                1         152.008       0.00124655         54.9226
61.97                 0.00119193         68.3073                1         151.963                1         151.975       0.00125254         54.9183