! TOUCHSTONE file generated by CST MICROWAVE STUDIO
! Date and time: Tue Feb 27 23:38:24 2024
! Project name: aire_des.cst
! Header version: 2018
! Port assignment regex: !\s*Touchstone port\s*([0-9]+)\s*=\s*(CST MWS port|CST DS port)\s*([0-9]+|Zmin|Zmax)\s*\(\"(.*)\"\)(\s*mode\s*([0-9]+))?.*
! Touchstone port assignment:
! Touchstone port 1 = CST MWS port 1 ("")
! Touchstone port 2 = CST MWS port 2 ("")
# GHz S MA R 376.7
60                     0.0176611        -53.3169         0.999618        -144.821         0.999926        -144.853        0.0175467        -56.3463
60.01                  0.0178086        -53.3542         0.999637        -144.851          1.00002        -144.881        0.0177075        -56.4461
60.02                  0.0179614        -53.3951         0.999715        -144.882          1.00006        -144.908        0.0178795        -56.5503
60.03                  0.0181206        -53.4386         0.999843        -144.917          1.00004        -144.935         0.018066        -56.6533
60.04                  0.0182873        -53.4873          0.99991        -144.958         0.999974        -144.964          0.01827        -56.7494
60.05                  0.0184606        -53.5441         0.999898        -144.999          0.99989        -144.996        0.0184923        -56.8281
60.06                  0.0186397          -53.61         0.999861        -145.037         0.999807        -145.031        0.0187311        -56.8727
60.07                  0.0188243        -53.6887         0.999825        -145.075         0.999736        -145.068         0.018982        -56.8695
60.08                  0.0190141        -53.7894         0.999795        -145.113         0.999682        -145.106        0.0192379        -56.8164
60.09                  0.0192105        -53.9311         0.999771        -145.151         0.999644        -145.146        0.0194921        -56.7268
60.1                   0.0194225        -54.1486         0.999749        -145.189         0.999624        -145.187        0.0197419        -56.6233
60.11                  0.0196841        -54.4609         0.999731        -145.228         0.999619        -145.228        0.0199892        -56.5262
60.12                  0.0200416         -54.703         0.999715        -145.267         0.999631         -145.27        0.0202387        -56.4474
60.13                  0.0204224        -54.6498         0.999702        -145.307         0.999657        -145.312        0.0204955        -56.3903
60.14                  0.0207458        -54.4992         0.999689        -145.348         0.999694        -145.355        0.0207638        -56.3534
60.15                  0.0210436        -54.4119         0.999677         -145.39         0.999739        -145.397        0.0210468        -56.3334
60.16                  0.0213471        -54.3874         0.999665        -145.432         0.999784         -145.44         0.021347        -56.3266
60.17                  0.0216678        -54.4022         0.999653        -145.476         0.999823        -145.483        0.0216665        -56.3299
60.18                  0.0220099        -54.4407         0.999642        -145.521         0.999852        -145.526        0.0220072        -56.3408
60.19                  0.0223759        -54.4944          0.99963        -145.567         0.999869         -145.57        0.0223712        -56.3575
60.2                   0.0227677        -54.5587         0.999619        -145.614         0.999872        -145.615        0.0227606        -56.3785
60.21                  0.0231874        -54.6309         0.999607        -145.663         0.999864        -145.662        0.0231777        -56.4029
60.22                  0.0236377        -54.7093         0.999595        -145.714         0.999847        -145.711        0.0236251        -56.4298
60.23                  0.0241215        -54.7931         0.999583        -145.766         0.999824        -145.762         0.024106        -56.4589
60.24                  0.0246423        -54.8816          0.99957        -145.821         0.999797        -145.816        0.0246238        -56.4898
60.25                   0.025204        -54.9747         0.999556        -145.878         0.999767        -145.872        0.0251826        -56.5225
60.26                  0.0258116        -55.0722         0.999542        -145.937         0.999735        -145.931        0.0257872         -56.557
60.27                  0.0264707        -55.1741         0.999525            -146         0.999702        -145.993        0.0264433        -56.5934
60.28                  0.0271878        -55.2807         0.999508        -146.065         0.999668        -146.058        0.0271576         -56.632
60.29                  0.0279708        -55.3923         0.999488        -146.135         0.999633        -146.128        0.0279378        -56.6731
60.3                   0.0288293        -55.5092         0.999466        -146.208         0.999596        -146.201        0.0287935        -56.7173
60.31                  0.0297747        -55.6321         0.999441        -146.287         0.999556         -146.28        0.0297362        -56.7651
60.32                  0.0308208        -55.7616         0.999412        -146.371         0.999514        -146.365        0.0307798        -56.8173
60.33                  0.0319846        -55.8988         0.999378        -146.462         0.999469        -146.456        0.0319413        -56.8748
60.34                  0.0332875        -56.0447         0.999339        -146.561         0.999418        -146.556        0.0332421        -56.9389
60.35                  0.0347561         -56.201         0.999293         -146.67         0.999361        -146.665        0.0347089         -57.011
60.36                  0.0364244        -56.3696         0.999237         -146.79         0.999295        -146.785        0.0363758        -57.0931
60.37                  0.0383366         -56.553          0.99917        -146.924         0.999218         -146.92        0.0382871        -57.1878
60.38                  0.0405509        -56.7547         0.999087        -147.075         0.999126        -147.071        0.0405012        -57.2983
60.39                   0.043146        -56.9792         0.998983        -147.248         0.999013        -147.245        0.0430967        -57.4293
60.4                   0.0462301        -57.2329          0.99885        -147.449         0.998872        -147.447        0.0461823        -57.5869
60.41                  0.0499573        -57.5247         0.998676        -147.687          0.99869        -147.685        0.0499123          -57.78
60.42                   0.054554        -57.8677         0.998441        -147.975         0.998448        -147.974        0.0545133        -58.0217
60.43                  0.0603671        -58.2822         0.998113        -148.333         0.998112        -148.333        0.0603328        -58.3319
60.44                  0.0679561        -58.8006         0.997633        -148.793         0.997623        -148.794        0.0679309        -58.7428
60.45                  0.0782854        -59.4786         0.996884        -149.411         0.996866        -149.412         0.078273        -59.3102
60.46                  0.0931701        -60.4216         0.995614        -150.291         0.995585        -150.294        0.0931749         -60.139
60.47                   0.116471        -61.8537         0.993172        -151.657         0.993128        -151.662         0.116498        -61.4533
60.48                   0.158066         -64.353         0.987425        -154.088         0.987361        -154.094         0.158112        -63.8304
60.49                   0.252447        -69.9785          0.96762         -159.64         0.967543        -159.642         0.252432        -69.3255
60.5                    0.618155        -93.6491         0.785728         176.779         0.786768         176.882         0.616642        -92.7688
60.51                   0.566669         158.984         0.823138        -110.589         0.821179        -110.355         0.569827         160.161
60.52                   0.223531         137.263         0.974366         -132.18         0.974211        -132.117         0.224662         138.423
60.53                   0.132683         131.855         0.990943        -137.492         0.990905        -137.458         0.133358         133.144
60.54                  0.0921336         129.395         0.995578        -139.854         0.995562         -139.83        0.0926334         130.842
60.55                  0.0692675         127.952         0.997456        -141.192         0.997444        -141.174        0.0696767         129.574
60.56                  0.0545995         126.974         0.998383        -142.058         0.998371        -142.043        0.0549528         128.786
60.57                  0.0443894         126.242         0.998901        -142.667         0.998888        -142.655         0.044704         128.261
60.58                  0.0368692         125.653         0.999215        -143.123         0.999202        -143.112        0.0371545           127.9
60.59                  0.0310956         125.151         0.999419        -143.478         0.999404        -143.468        0.0313574         127.647
60.6                     0.02652         124.702         0.999557        -143.764         0.999541        -143.755        0.0267616         127.475
60.61                  0.0228013         124.283         0.999653        -144.001         0.999637        -143.993        0.0230251         127.365
60.62                  0.0197166         123.879         0.999723        -144.202         0.999707        -144.195        0.0199241         127.308
60.63                  0.0171141         123.476         0.999775        -144.376         0.999758        -144.369        0.0173063         127.299
60.64                  0.0148867         123.063         0.999814        -144.527         0.999797        -144.521        0.0150643         127.337
60.65                  0.0129568         122.626         0.999844        -144.662         0.999827        -144.656        0.0131204         127.424
60.66                  0.0112668         122.154         0.999868        -144.783          0.99985        -144.778        0.0114167         127.565
60.67                 0.00977302         121.631         0.999886        -144.893         0.999868        -144.888       0.00990966         127.771
60.68                  0.0084418         121.036           0.9999        -144.993         0.999883        -144.989        0.0085654         128.054
60.69                 0.00724675         120.341         0.999912        -145.086         0.999895        -145.082       0.00735758         128.437
60.7                  0.00616697         119.505         0.999921        -145.172         0.999905        -145.168       0.00626527         128.953
60.71                 0.00518576         118.468         0.999929        -145.253         0.999914        -145.249       0.00527175         129.653
60.72                 0.00428977          117.13         0.999935        -145.329          0.99992        -145.325       0.00436357         130.622
60.73                 0.00346842         115.316          0.99994          -145.4         0.999926        -145.397       0.00353001          132.01
60.74                 0.00271386         112.695         0.999944        -145.468         0.999931        -145.465       0.00276287         134.101
60.75                  0.0020217         108.555         0.999947        -145.533         0.999935        -145.531       0.00205694         137.515
60.76                 0.00139454         101.072         0.999949        -145.595         0.999939        -145.593       0.00141267         143.854
60.77                0.000859047         84.4644         0.999951        -145.655         0.999942        -145.653      0.000849987         158.497
60.78                0.000554799         42.1098         0.999953        -145.713         0.999945        -145.711      0.000497646        -158.836
60.79                0.000725706        -6.63813         0.999954        -145.768         0.999947        -145.767      0.000662836        -103.781
60.8                  0.00113652        -26.9833         0.999954        -145.822          0.99995        -145.821       0.00109136        -83.1595
60.81                 0.00158737         -35.684         0.999955        -145.875         0.999952        -145.873       0.00155448        -75.0289
60.82                 0.00203553        -40.3148         0.999955        -145.926         0.999953        -145.925       0.00201124        -70.8852
60.83                  0.0024714        -43.1679         0.999955        -145.976         0.999955        -145.975       0.00245355        -68.4144
60.84                 0.00289285        -45.1021         0.999955        -146.025         0.999957        -146.024       0.00287999        -66.7891
60.85                 0.00329994        -46.5034         0.999954        -146.072         0.999958        -146.072       0.00329097        -65.6464
60.86                 0.00369348        -47.5692         0.999954        -146.119         0.999959        -146.119       0.00368751        -64.8039
60.87                 0.00407452        -48.4104         0.999953        -146.166         0.999961        -146.165       0.00407081        -64.1598
60.88                 0.00444419        -49.0941         0.999952        -146.211         0.999962        -146.211        0.0044421        -63.6531
60.89                 0.00480361        -49.6634         0.999951        -146.256         0.999963        -146.256       0.00480258        -63.2453
60.9                  0.00515387        -50.1467          0.99995          -146.3         0.999964        -146.301        0.0051534        -62.9106
60.91                 0.00549599        -50.5642         0.999949        -146.344         0.999965        -146.345       0.00549564        -62.6312
60.92                 0.00583096        -50.9299         0.999948        -146.388         0.999965        -146.388       0.00583034        -62.3947
60.93                 0.00615971        -51.2545         0.999946        -146.431         0.999966        -146.431       0.00615847        -62.1918
60.94                 0.00648312        -51.5457         0.999945        -146.474         0.999967        -146.474       0.00648097        -62.0157
60.95                 0.00680204        -51.8096         0.999943        -146.516         0.999968        -146.517       0.00679872        -61.8612
60.96                  0.0071173        -52.0509         0.999941        -146.558         0.999968         -146.56       0.00711258        -61.7244
60.97                 0.00742968        -52.2733          0.99994          -146.6         0.999969        -146.602       0.00742336         -61.602
60.98                 0.00773996        -52.4799         0.999938        -146.642         0.999969        -146.644       0.00773189        -61.4917
60.99                 0.00804889        -52.6729         0.999936        -146.684          0.99997        -146.686       0.00803893        -61.3915
61                    0.00835723        -52.8546         0.999934        -146.726          0.99997        -146.728       0.00834528        -61.2998
61.01                 0.00866574        -53.0264         0.999931        -146.768         0.999971         -146.77       0.00865171        -61.2152
61.02                 0.00897517        -53.1898         0.999929         -146.81         0.999971        -146.812       0.00895899        -61.1368
61.03                 0.00928629         -53.346         0.999927        -146.852         0.999971        -146.854       0.00926793        -61.0636
61.04                  0.0095999         -53.496         0.999924        -146.894         0.999971        -146.897       0.00957933         -60.995
61.05                 0.00991682        -53.6407         0.999921        -146.937         0.999971        -146.939       0.00989402        -60.9303
61.06                  0.0102379        -53.7808         0.999918        -146.979         0.999971        -146.982        0.0102129        -60.8691
61.07                   0.010564        -53.9171         0.999915        -147.022         0.999971        -147.025        0.0105368        -60.8108
61.08                  0.0108962          -54.05         0.999912        -147.065          0.99997        -147.068        0.0108668        -60.7552
61.09                  0.0112354        -54.1801         0.999909        -147.109          0.99997        -147.112        0.0112038        -60.7019
61.1                   0.0115827         -54.308         0.999905        -147.153         0.999969        -147.156         0.011549        -60.6508
61.11                  0.0119393         -54.434         0.999901        -147.198         0.999968        -147.201        0.0119036        -60.6015
61.12                  0.0123066        -54.5586         0.999897        -147.243         0.999967        -147.247        0.0122689        -60.5539
61.13                  0.0126859        -54.6822         0.999892        -147.289         0.999966        -147.293        0.0126464        -60.5079
61.14                  0.0130789        -54.8051         0.999888        -147.336         0.999964         -147.34        0.0130375        -60.4634
61.15                  0.0134874        -54.9277         0.999882        -147.383         0.999962        -147.387        0.0134442        -60.4203
61.16                  0.0139133        -55.0504         0.999877        -147.432          0.99996        -147.436        0.0138685        -60.3784
61.17                  0.0143589        -55.1734         0.999871        -147.482         0.999957        -147.486        0.0143125        -60.3379
61.18                  0.0148268        -55.2972         0.999864        -147.533         0.999954        -147.537        0.0147789        -60.2986
61.19                    0.01532        -55.4222         0.999857        -147.585          0.99995         -147.59        0.0152706        -60.2606
61.2                   0.0158418        -55.5486         0.999849        -147.639         0.999946        -147.644        0.0157911        -60.2239
61.21                  0.0163963         -55.677          0.99984        -147.695         0.999941          -147.7        0.0163444        -60.1886
61.22                  0.0169882        -55.8078         0.999831        -147.753         0.999935        -147.759        0.0169351        -60.1549
61.23                   0.017623        -55.9415          0.99982        -147.814         0.999928        -147.819        0.0175688        -60.1228
61.24                  0.0183072        -56.0787         0.999808        -147.877          0.99992        -147.883        0.0182522        -60.0926
61.25                   0.019049          -56.22         0.999794        -147.944          0.99991         -147.95        0.0189931        -60.0647
61.26                   0.019858        -56.3662         0.999778        -148.014         0.999899        -148.021        0.0198014        -60.0393
61.27                  0.0207462        -56.5182          0.99976         -148.09         0.999885        -148.096        0.0206889        -60.0169
61.28                  0.0217284         -56.677          0.99974         -148.17         0.999869        -148.177        0.0216706        -59.9983
61.29                  0.0228235         -56.844         0.999715        -148.257         0.999849        -148.264        0.0227654        -59.9843
61.3                   0.0240558        -57.0209         0.999687        -148.352         0.999825        -148.359        0.0239974        -59.9759
61.31                  0.0254567        -57.2097         0.999652        -148.456         0.999796        -148.463        0.0253981        -59.9748
61.32                  0.0270682        -57.4131          0.99961        -148.573         0.999759         -148.58        0.0270097         -59.983
61.33                  0.0289476        -57.6349         0.999557        -148.705         0.999712        -148.712        0.0288893        -60.0035
61.34                  0.0311749        -57.8799          0.99949        -148.857         0.999652        -148.865        0.0311169        -60.0405
61.35                  0.0338654        -58.1553         0.999402        -149.035         0.999571        -149.043        0.0338081        -60.1001
61.36                  0.0371921        -58.4716         0.999284         -149.25          0.99946        -149.259        0.0371356        -60.1917
61.37                  0.0414261        -58.8448         0.999117        -149.517         0.999302        -149.526        0.0413709        -60.3303
61.38                  0.0470188        -59.3018         0.998869        -149.862         0.999064        -149.872        0.0469653        -60.5411
61.39                  0.0547806        -59.8898         0.998472        -150.331         0.998679        -150.342        0.0547297        -60.8699
61.4                   0.0663267         -60.703          0.99777        -151.018         0.997993         -151.03        0.0662796        -61.4087
61.41                  0.0854014        -61.9585         0.996315        -152.139          0.99656        -152.153        0.0853601        -62.3724
61.42                   0.123079           -64.3         0.992355        -154.334         0.992636        -154.352         0.123048        -64.4013
61.43                   0.231996        -70.8324          0.97263        -160.702         0.972977        -160.732         0.231983        -70.5961
61.44                   0.998839         -147.28       0.00630659         133.265       0.00618248         130.559         0.999162        -146.634
61.45                   0.214174         134.575          0.97672        -134.966         0.976605        -134.956         0.214372         135.577
61.46                   0.103767         127.926         0.994572        -141.403         0.994625        -141.401         0.103892         129.366
61.47                  0.0657766         125.484         0.997812        -143.613         0.997922        -143.613        0.0658808         127.413
61.48                  0.0465675         124.095         0.998895        -144.739         0.999035        -144.741        0.0466617         126.576
61.49                  0.0349327         123.103         0.999371        -145.431         0.999531        -145.434        0.0350212         126.215
61.5                   0.0270944         122.281         0.999615        -145.905         0.999757        -145.908        0.0271791         126.125
61.51                  0.0214257          121.52         0.999752        -146.254         0.999822        -146.258        0.0215078         126.229
61.52                  0.0171116         120.749         0.999836        -146.525         0.999871         -146.53        0.0171918         126.502
61.53                  0.0136983         119.907         0.999889        -146.745         0.999909         -146.75        0.0137771         126.955
61.54                   0.010913         118.923         0.999923        -146.929          0.99994        -146.934        0.0109909          127.63
61.55                 0.00858227         117.691         0.999946        -147.088         0.999965        -147.093       0.00865968         128.619
61.56                 0.00659087         116.024         0.999961        -147.226         0.999987        -147.231       0.00666828         130.099
61.57                 0.00486033         113.537         0.999971        -147.351          1.00001        -147.356       0.00493846         132.454
61.58                 0.00333889         109.274         0.999978        -147.463          1.00002        -147.468       0.00341895         136.636
61.59                 0.00200554         100.064         0.999982        -147.568          1.00004        -147.572       0.00208971         145.711
61.6                 0.000957475          69.667         0.999983        -147.665          1.00005        -147.669       0.00104274         174.158
61.61                0.000966949        -5.93092         0.999983        -147.756          1.00006        -147.761      0.000974205        -114.461
61.62                 0.00186245        -33.7725         0.999982        -147.844          1.00007        -147.848       0.00182771        -84.1349
61.63                 0.00284774        -42.4543          0.99998        -147.928          1.00009        -147.931       0.00280186        -74.6336
61.64                 0.00382002        -46.5265         0.999977        -148.009           1.0001        -148.012        0.0037698        -70.2901
61.65                  0.0047707        -48.9011         0.999973        -148.088          1.00011        -148.091       0.00471842        -67.8359
61.66                 0.00570411        -50.4741         0.999969        -148.167          1.00012        -148.169       0.00565078        -66.2685
61.67                 0.00662727        -51.6073         0.999963        -148.244          1.00013        -148.246        0.0065734        -65.1856
61.68                 0.00754787        -52.4741         0.999957        -148.321          1.00013        -148.322       0.00749375        -64.3961
61.69                 0.00847382        -53.1677          0.99995        -148.399          1.00014        -148.399        0.0084196        -63.7977
61.7                  0.00941321        -53.7429         0.999942        -148.477          1.00015        -148.476       0.00935899        -63.3311
61.71                  0.0103745         -54.234         0.999933        -148.556          1.00016        -148.555        0.0103204        -62.9596
61.72                  0.0113668        -54.6637         0.999922        -148.637          1.00017        -148.635        0.0113127        -62.6594
61.73                  0.0123999        -55.0477          0.99991        -148.721          1.00018        -148.718        0.0123459        -62.4145
61.74                   0.013485        -55.3972         0.999896        -148.807          1.00019        -148.803         0.013431        -62.2138
61.75                  0.0146347        -55.7208         0.999881        -148.897          1.00021        -148.892        0.0145807        -62.0496
61.76                   0.015864         -56.026         0.999862        -148.992          1.00019        -148.986        0.0158099        -61.9172
61.77                  0.0171905        -56.3177         0.999841        -149.092          1.00016        -149.085        0.0171363        -61.8125
61.78                  0.0186356           -56.6         0.999815        -149.199          1.00011        -149.192        0.0185812        -61.7326
61.79                  0.0202259        -56.8772         0.999785        -149.314          1.00006        -149.306        0.0201712        -61.6761
61.8                   0.0219949        -57.1532         0.999748         -149.44          1.00001        -149.431        0.0219397        -61.6427
61.81                  0.0239854        -57.4323         0.999702        -149.578          0.99994        -149.569        0.0239295        -61.6329
61.82                  0.0262538         -57.719         0.999646        -149.732          0.99986        -149.723        0.0261971        -61.6485
61.83                  0.0288758        -58.0189         0.999574        -149.907         0.999763        -149.898         0.028818        -61.6926
61.84                  0.0319552        -58.3389         0.999481        -150.107         0.999645        -150.099         0.031896          -61.77
61.85                  0.0356395        -58.6883         0.999357        -150.343         0.999496        -150.335        0.0355785        -61.8884
61.86                   0.040145        -59.0801         0.999187        -150.625           0.9993        -150.618        0.0400815        -62.0594
61.87                  0.0458025         -59.534         0.998945        -150.974         0.999031        -150.968         0.045736        -62.3015
61.88                  0.0531458        -60.0814         0.998582        -151.419         0.998641        -151.415        0.0530751        -62.6446
61.89                  0.0630938        -60.7754         0.998004        -152.015         0.998034        -152.013        0.0630174        -63.1413
61.9                   0.0773754        -61.7164         0.996999        -152.859         0.996994        -152.861        0.0772911        -63.8905
61.91                  0.0996678        -63.1176         0.995018        -154.166         0.994964        -154.172         0.099572        -65.1041
61.92                    0.13938        -65.5276         0.990235        -156.483         0.990094        -156.497         0.139267        -67.3287
61.93                   0.229443        -70.9002           0.9733        -161.762         0.972921        -161.795         0.229316        -72.5123
61.94                   0.583984        -93.5142         0.811362         175.728         0.809171         175.613         0.584363        -94.9179
61.95                   0.565014          156.61          0.82464        -114.127         0.824756        -114.129          0.56507          155.19
61.96                   0.226035          135.13         0.974025        -135.497         0.974084        -135.468         0.225908         133.931
61.97                   0.138216         129.896         0.990352        -140.642         0.990418        -140.619         0.138142         128.874