! TOUCHSTONE file generated by CST MICROWAVE STUDIO
! Date and time: Sun Mar  3 12:20:18 2024
! Project name: aire_def.cst
! Parameters = {d=8.5}
! Header version: 2018
! Port assignment regex: !\s*Touchstone port\s*([0-9]+)\s*=\s*(CST MWS port|CST DS port)\s*([0-9]+|Zmin|Zmax)\s*\(\"(.*)\"\)(\s*mode\s*([0-9]+))?.*
! Touchstone port assignment:
! Touchstone port 1 = CST MWS port 1 ("")
! Touchstone port 2 = CST MWS port 2 ("")
# GHz S MA R 376.7
60                    0.00017932        -128.146         0.999456         144.124                1         144.139      0.000135521        -75.2199
60.01                0.000172403        -128.438          0.99946         144.089                1         144.103      0.000131396        -72.6937
60.02                0.000165485        -128.753         0.999464         144.053                1         144.067      0.000127549        -70.0084
60.03                0.000158568        -129.094         0.999468         144.017                1          144.03      0.000124003        -67.1621
60.04                0.000151651        -129.464         0.999471         143.982                1         143.994      0.000120786        -64.1555
60.05                0.000144737        -129.867         0.999475         143.946                1         143.958      0.000117924         -60.993
60.06                0.000137826        -130.309         0.999479          143.91                1         143.921      0.000115444        -57.6836
60.07                0.000130919        -130.796         0.999482         143.875                1         143.885      0.000113371        -54.2408
60.08                0.000124018        -131.335         0.999486         143.839                1         143.849      0.000111726        -50.6831
60.09                0.000117124        -131.934          0.99949         143.803                1         143.813       0.00011053        -47.0338
60.1                 0.000110239        -132.607         0.999493         143.768                1         143.776      0.000109796        -43.3205
60.11                0.000103367        -133.366         0.999497         143.732                1          143.74      0.000109533        -39.5738
60.12                9.65103e-05         -134.23         0.999501         143.696                1         143.704      0.000109745         -35.826
60.13                8.96739e-05        -135.223         0.999504          143.66                1         143.668      0.000110429        -32.1096
60.14                8.28636e-05        -136.377         0.999508         143.625                1         143.631      0.000111576        -28.4552
60.15                7.60878e-05        -137.734         0.999512         143.589                1         143.595      0.000113171        -24.8906
60.16                6.93577e-05        -139.351         0.999515         143.553                1         143.559      0.000115196        -21.4396
60.17                6.26892e-05         -141.31         0.999519         143.518                1         143.523      0.000117628        -18.1211
60.18                5.61057e-05        -143.727         0.999522         143.482                1         143.486      0.000120442        -14.9488
60.19                4.96428e-05        -146.776         0.999526         143.446                1          143.45      0.000123613         -11.932
60.2                 4.33561e-05        -150.717          0.99953         143.411                1         143.414      0.000127112         -9.0754
60.21                3.73368e-05        -155.956         0.999533         143.375                1         143.378      0.000130913        -6.38009
60.22                3.17398e-05        -163.115         0.999537         143.339                1         143.342      0.000134992        -3.84411
60.23                2.68335e-05        -173.096          0.99954         143.304                1         143.305      0.000139322         -1.4632
60.24                2.30661e-05         173.109         0.999544         143.268                1         143.269      0.000143881        0.768594
60.25                2.10616e-05         155.421         0.999547         143.232                1         143.233      0.000148647         2.85836
60.26                2.13264e-05         136.229         0.999551         143.196                1         143.197      0.000153602         4.81387
60.27                2.37877e-05         119.296         0.999554         143.161                1         143.161      0.000158727         6.64323
60.28                 2.7872e-05         106.408         0.999558         143.125                1         143.125      0.000164006         8.35459
60.29                3.29839e-05         97.1391         0.999561         143.089                1         143.088      0.000169424         9.95597
60.3                 3.87201e-05         90.4712         0.999565         143.054                1         143.052      0.000174968         11.4551
60.31                4.48432e-05          85.563         0.999568         143.018                1         143.016      0.000180626         12.8594
60.32                5.12158e-05         81.8464         0.999572         142.982                1          142.98      0.000186388         14.1759
60.33                5.77565e-05         78.9548         0.999575         142.947                1         142.944      0.000192244          15.411
60.34                6.44151e-05         76.6498         0.999579         142.911                1         142.908      0.000198185         16.5707
60.35                7.11594e-05         74.7736         0.999582         142.875                1         142.872      0.000204203         17.6609
60.36                7.79678e-05         73.2185         0.999585         142.839                1         142.836      0.000210293         18.6865
60.37                8.48257e-05         71.9093         0.999589         142.804                1         142.799      0.000216446         19.6525
60.38                9.17225e-05         70.7922         0.999592         142.768                1         142.763      0.000222659         20.5632
60.39                9.86506e-05         69.8276         0.999596         142.732                1         142.727      0.000228925         21.4226
60.4                 0.000105604         68.9861         0.999599         142.697                1         142.691      0.000235241         22.2345
60.41                 0.00011258         68.2451         0.999602         142.661                1         142.655      0.000241602         23.0023
60.42                0.000119573         67.5875         0.999606         142.625                1         142.619      0.000248004          23.729
60.43                0.000126582         66.9994         0.999609         142.589                1         142.583      0.000254444         24.4176
60.44                0.000133604         66.4702         0.999613         142.554                1         142.547      0.000260919         25.0706
60.45                0.000140638          65.991         0.999616         142.518                1         142.511      0.000267427         25.6904
60.46                0.000147682         65.5548         0.999619         142.482                1         142.475      0.000273964         26.2794
60.47                0.000154736         65.1557         0.999622         142.447                1         142.439      0.000280528         26.8394
60.48                0.000161798          64.789         0.999626         142.411                1         142.403      0.000287117         27.3725
60.49                0.000168867         64.4506         0.999629         142.375                1         142.367      0.000293729         27.8802
60.5                 0.000175943         64.1371         0.999632         142.339                1         142.331      0.000300363         28.3643
60.51                0.000183026         63.8457         0.999636         142.304                1         142.295      0.000307017         28.8261
60.52                0.000190114         63.5739         0.999639         142.268                1         142.259      0.000313688          29.267
60.53                0.000197208         63.3195         0.999642         142.232                1         142.223      0.000320377         29.6883
60.54                0.000204306         63.0808         0.999645         142.197                1         142.187      0.000327081         30.0911
60.55                0.000211409         62.8563         0.999649         142.161                1         142.151        0.0003338         30.4765
60.56                0.000218517         62.6444         0.999652         142.125                1         142.115      0.000340532         30.8455
60.57                0.000225628         62.4441         0.999655         142.089                1         142.079      0.000347276          31.199
60.58                0.000232743         62.2542         0.999658         142.054                1         142.043      0.000354032         31.5378
60.59                0.000239862         62.0739         0.999662         142.018                1         142.007      0.000360797         31.8628
60.6                 0.000246984         61.9023         0.999665         141.982                1         141.971      0.000367573         32.1748
60.61                0.000254109         61.7387         0.999668         141.947                1         141.935      0.000374357         32.4743
60.62                0.000261238         61.5824         0.999671         141.911                1         141.899      0.000381149         32.7621
60.63                0.000268369         61.4328         0.999674         141.875                1         141.863      0.000387949         33.0387
60.64                0.000275502         61.2894         0.999678         141.839                1         141.827      0.000394756         33.3047
60.65                0.000282639         61.1518         0.999681         141.804                1         141.791      0.000401569         33.5606
60.66                0.000289777         61.0195         0.999684         141.768                1         141.755      0.000408387          33.807
60.67                0.000296918         60.8922         0.999687         141.732                1         141.719      0.000415211         34.0443
60.68                0.000304061         60.7693          0.99969         141.696                1         141.683      0.000422039         34.2728
60.69                0.000311206         60.6508         0.999693         141.661                1         141.647      0.000428871         34.4931
60.7                 0.000318353         60.5362         0.999696         141.625                1         141.611      0.000435707         34.7056
60.71                0.000325502         60.4253         0.999699         141.589                1         141.575      0.000442546         34.9104
60.72                0.000332653         60.3179         0.999702         141.554                1         141.539      0.000449388         35.1081
60.73                0.000339805         60.2137         0.999706         141.518                1         141.504      0.000456233         35.2989
60.74                0.000346958         60.1126         0.999709         141.482                1         141.468       0.00046308         35.4832
60.75                0.000354113         60.0143         0.999712         141.446                1         141.432      0.000469929         35.6611
60.76                 0.00036127         59.9186         0.999715         141.411                1         141.396      0.000476779          35.833
60.77                0.000368428         59.8255         0.999718         141.375                1          141.36       0.00048363         35.9992
60.78                0.000375586         59.7347         0.999721         141.339                1         141.324      0.000490482         36.1598
60.79                0.000382746         59.6462         0.999724         141.303                1         141.288      0.000497335         36.3151
60.8                 0.000389907         59.5598         0.999727         141.268                1         141.252      0.000504188         36.4653
60.81                0.000397069         59.4753          0.99973         141.232                1         141.217      0.000511041         36.6106
60.82                0.000404232         59.3927         0.999733         141.196                1         141.181      0.000517894         36.7512
60.83                0.000411395         59.3119         0.999736          141.16                1         141.145      0.000524746         36.8873
60.84                0.000418559         59.2328         0.999739         141.125                1         141.109      0.000531598          37.019
60.85                0.000425724         59.1552         0.999742         141.089                1         141.073      0.000538449         37.1465
60.86                0.000432889         59.0792         0.999745         141.053                1         141.037      0.000545299         37.2701
60.87                0.000440054         59.0046         0.999748         141.017                1         141.001      0.000552147         37.3897
60.88                 0.00044722         58.9313         0.999751         140.982                1         140.966      0.000558994         37.5056
60.89                0.000454386         58.8594         0.999753         140.946                1          140.93       0.00056584         37.6179
60.9                 0.000461553         58.7886         0.999756          140.91                1         140.894      0.000572683         37.7267
60.91                0.000468719          58.719         0.999759         140.875                1         140.858      0.000579524         37.8322
60.92                0.000475886         58.6506         0.999762         140.839                1         140.822      0.000586363         37.9344
60.93                0.000483052         58.5832         0.999765         140.803                1         140.787        0.0005932         38.0335
60.94                0.000490219         58.5168         0.999768         140.767                1         140.751      0.000600034         38.1296
60.95                0.000497385         58.4513         0.999771         140.732                1         140.715      0.000606865         38.2227
60.96                0.000504551         58.3868         0.999774         140.696                1         140.679      0.000613694          38.313
60.97                0.000511717         58.3231         0.999777          140.66                1         140.643      0.000620519         38.4006
60.98                0.000518882         58.2603         0.999779         140.624                1         140.608      0.000627341         38.4856
60.99                0.000526047         58.1982         0.999782         140.589                1         140.572       0.00063416         38.5679
61                   0.000533211         58.1369         0.999785         140.553                1         140.536      0.000640976         38.6478
61.01                0.000540374         58.0764         0.999788         140.517                1           140.5      0.000647787         38.7253
61.02                0.000547537         58.0165         0.999791         140.481                1         140.465      0.000654595         38.8005
61.03                0.000554699         57.9573         0.999793         140.446                1         140.429      0.000661399         38.8734
61.04                0.000561861         57.8987         0.999796          140.41                1         140.393      0.000668199         38.9441
61.05                0.000569021         57.8408         0.999799         140.374                1         140.357      0.000674995         39.0127
61.06                 0.00057618         57.7834         0.999802         140.338                1         140.322      0.000681787         39.0793
61.07                0.000583338         57.7266         0.999805         140.303                1         140.286      0.000688574         39.1438
61.08                0.000590495         57.6703         0.999807         140.267                1          140.25      0.000695356         39.2064
61.09                0.000597651         57.6145          0.99981         140.231                1         140.214      0.000702134         39.2671
61.1                 0.000604805         57.5592         0.999813         140.195                1         140.179      0.000708907         39.3259
61.11                0.000611958         57.5044         0.999816          140.16                1         140.143      0.000715676          39.383
61.12                 0.00061911           57.45         0.999818         140.124                1         140.107      0.000722439         39.4383
61.13                 0.00062626          57.396         0.999821         140.088                1         140.071      0.000729197          39.492
61.14                0.000633408         57.3425         0.999824         140.052                1         140.036       0.00073595          39.544
61.15                0.000640555         57.2894         0.999826         140.017                1             140      0.000742698         39.5944
61.16                0.000647699         57.2366         0.999829         139.981                1         139.964       0.00074944         39.6432
61.17                0.000654842         57.1842         0.999832         139.945                1         139.929      0.000756176         39.6906
61.18                0.000661983         57.1322         0.999834         139.909                1         139.893      0.000762907         39.7365
61.19                0.000669122         57.0805         0.999837         139.874                1         139.857      0.000769633         39.7809
61.2                 0.000676259         57.0291          0.99984         139.838                1         139.821      0.000776352         39.8239
61.21                0.000683394          56.978         0.999842         139.802                1         139.786      0.000783065         39.8656
61.22                0.000690526         56.9273         0.999845         139.766                1          139.75      0.000789772         39.9059
61.23                0.000697656         56.8768         0.999847         139.731                1         139.714      0.000796474         39.9449
61.24                0.000704783         56.8265          0.99985         139.695                1         139.679      0.000803168         39.9827
61.25                0.000711908         56.7766         0.999853         139.659                1         139.643      0.000809857         40.0192
61.26                0.000719031         56.7269         0.999855         139.623                1         139.607      0.000816539         40.0545
61.27                 0.00072615         56.6774         0.999858         139.587                1         139.572      0.000823214         40.0886
61.28                0.000733267         56.6282          0.99986         139.552                1         139.536      0.000829883         40.1216
61.29                0.000740381         56.5792         0.999863         139.516                1           139.5      0.000836545         40.1535
61.3                 0.000747493         56.5304         0.999865          139.48                1         139.465        0.0008432         40.1843
61.31                0.000754601         56.4818         0.999868         139.444                1         139.429      0.000849848         40.2139
61.32                0.000761706         56.4334         0.999871         139.409                1         139.393       0.00085649         40.2426
61.33                0.000768807         56.3852         0.999873         139.373                1         139.358      0.000863124         40.2702
61.34                0.000775906         56.3372         0.999876         139.337                1         139.322       0.00086975         40.2968
61.35                0.000783001         56.2893         0.999878         139.301                1         139.286       0.00087637         40.3224
61.36                0.000790093         56.2416         0.999881         139.266                1         139.251      0.000882982         40.3471
61.37                0.000797181         56.1941         0.999883          139.23                1         139.215      0.000889587         40.3709
61.38                0.000804265         56.1467         0.999885         139.194                1         139.179      0.000896184         40.3937
61.39                0.000811346         56.0995         0.999888         139.158                1         139.144      0.000902773         40.4156
61.4                 0.000818423         56.0524          0.99989         139.123                1         139.108      0.000909354         40.4366
61.41                0.000825496         56.0055         0.999893         139.087                1         139.073      0.000915928         40.4568
61.42                0.000832565         55.9586         0.999895         139.051                1         139.037      0.000922494         40.4761
61.43                 0.00083963         55.9119         0.999898         139.015                1         139.001      0.000929051         40.4946
61.44                0.000846691         55.8653           0.9999          138.98                1         138.966      0.000935601         40.5123
61.45                0.000853747         55.8189         0.999902         138.944                1          138.93      0.000942142         40.5292
61.46                  0.0008608         55.7725         0.999905         138.908                1         138.894      0.000948675         40.5453
61.47                0.000867847         55.7262         0.999907         138.872                1         138.859      0.000955199         40.5607
61.48                0.000874891           55.68          0.99991         138.836                1         138.823      0.000961715         40.5753
61.49                0.000881929          55.634         0.999912         138.801                1         138.788      0.000968223         40.5892
61.5                 0.000888963          55.588         0.999914         138.765                1         138.752      0.000974722         40.6023
61.51                0.000895992         55.5421         0.999917         138.729                1         138.716      0.000981212         40.6148
61.52                0.000903016         55.4962         0.999919         138.693                1         138.681      0.000987693         40.6265
61.53                0.000910036         55.4505         0.999921         138.658                1         138.645      0.000994165         40.6376
61.54                 0.00091705         55.4048         0.999924         138.622                1         138.609       0.00100063          40.648
61.55                0.000924059         55.3592         0.999926         138.586                1         138.574       0.00100708         40.6578
61.56                0.000931062         55.3136         0.999928          138.55                1         138.538       0.00101353         40.6669
61.57                0.000938061         55.2681         0.999931         138.515                1         138.503       0.00101996         40.6753
61.58                0.000945053         55.2227         0.999933         138.479                1         138.467       0.00102639         40.6832
61.59                0.000952041         55.1773         0.999935         138.443                1         138.431       0.00103281         40.6904
61.6                 0.000959022          55.132         0.999937         138.407                1         138.396       0.00103921         40.6971
61.61                0.000965998         55.0867          0.99994         138.372                1          138.36       0.00104561         40.7031
61.62                0.000972968         55.0415         0.999942         138.336                1         138.325         0.001052         40.7086
61.63                0.000979932         54.9963         0.999944           138.3                1         138.289       0.00105838         40.7135
61.64                 0.00098689         54.9511         0.999946         138.264                1         138.253       0.00106475         40.7178
61.65                0.000993841          54.906         0.999949         138.228                1         138.218        0.0010711         40.7216
61.66                 0.00100079         54.8609         0.999951         138.193                1         138.182       0.00107745         40.7249
61.67                 0.00100773         54.8158         0.999953         138.157                1         138.147       0.00108379         40.7276
61.68                 0.00101466         54.7708         0.999955         138.121                1         138.111       0.00109012         40.7298
61.69                 0.00102158         54.7258         0.999957         138.085                1         138.076       0.00109643         40.7314
61.7                   0.0010285         54.6808          0.99996          138.05                1          138.04       0.00110274         40.7326
61.71                 0.00103542         54.6358         0.999962         138.014                1         138.004       0.00110904         40.7333
61.72                 0.00104232         54.5909         0.999964         137.978                1         137.969       0.00111532         40.7335
61.73                 0.00104922         54.5459         0.999966         137.942                1         137.933        0.0011216         40.7332
61.74                 0.00105611          54.501         0.999968         137.907                1         137.898       0.00112786         40.7324
61.75                   0.001063         54.4561          0.99997         137.871                1         137.862       0.00113412         40.7311
61.76                 0.00106987         54.4112         0.999972         137.835                1         137.827       0.00114036         40.7294
61.77                 0.00107674         54.3663         0.999975         137.799                1         137.791       0.00114659         40.7272
61.78                 0.00108361         54.3214         0.999977         137.763                1         137.755       0.00115281         40.7246
61.79                 0.00109046         54.2766         0.999979         137.728                1          137.72       0.00115902         40.7216
61.8                  0.00109731         54.2317         0.999981         137.692                1         137.684       0.00116522         40.7181
61.81                 0.00110415         54.1868         0.999983         137.656                1         137.649       0.00117141         40.7141
61.82                 0.00111098         54.1419         0.999985          137.62                1         137.613       0.00117758         40.7098
61.83                  0.0011178          54.097         0.999987         137.585                1         137.578       0.00118375          40.705
61.84                 0.00112462         54.0522         0.999989         137.549                1         137.542        0.0011899         40.6999
61.85                 0.00113143         54.0073         0.999991         137.513                1         137.507       0.00119604         40.6943
61.86                 0.00113822         53.9624         0.999993         137.477                1         137.471       0.00120217         40.6883
61.87                 0.00114501         53.9175         0.999995         137.442                1         137.435       0.00120828         40.6819
61.88                  0.0011518         53.8725         0.999997         137.406                1           137.4       0.00121439         40.6751
61.89                 0.00115857         53.8276         0.999999          137.37                1         137.364       0.00122048          40.668
61.9                  0.00116533         53.7827                1         137.334                1         137.329       0.00122656         40.6605
61.91                 0.00117209         53.7377                1         137.298                1         137.293       0.00123263         40.6526
61.92                 0.00117883         53.6927                1         137.263                1         137.258       0.00123869         40.6443
61.93                 0.00118557         53.6477                1         137.227                1         137.222       0.00124473         40.6357
61.94                  0.0011923         53.6027                1         137.191                1         137.187       0.00125076         40.6267
61.95                 0.00119902         53.5577                1         137.155                1         137.151       0.00125678         40.6173
61.96                 0.00120573         53.5126                1          137.12                1         137.115       0.00126278         40.6076
61.97                 0.00121243         53.4676                1         137.084                1          137.08       0.00126878         40.5976