! TOUCHSTONE file generated by CST MICROWAVE STUDIO
! Date and time: Fri Mar  8 11:35:21 2024
! Project name: aire_def.cst
! Parameters = {d=9.2}
! Header version: 2018
! Port assignment regex: !\s*Touchstone port\s*([0-9]+)\s*=\s*(CST MWS port|CST DS port)\s*([0-9]+|Zmin|Zmax)\s*\(\"(.*)\"\)(\s*mode\s*([0-9]+))?.*
! Touchstone port assignment:
! Touchstone port 1 = CST MWS port 1 ("")
! Touchstone port 2 = CST MWS port 2 ("")
# GHz S MA R 376.7
60                   0.000402395        -43.8546         0.999678            -115                1        -114.993      0.000339591         11.7671
60.01                0.000396298        -44.3472         0.999679        -115.018                1        -115.012      0.000334205         12.4878
60.02                0.000390222        -44.8544          0.99968        -115.037                1        -115.031      0.000328875         13.2325
60.03                0.000384169        -45.3768         0.999682        -115.056                1         -115.05      0.000323605         14.0022
60.04                0.000378141        -45.9152         0.999683        -115.075                1        -115.069      0.000318397         14.7978
60.05                0.000372139        -46.4703         0.999684        -115.094                1        -115.088      0.000313254         15.6202
60.06                0.000366164        -47.0427         0.999685        -115.113                1        -115.107      0.000308179         16.4705
60.07                0.000360218        -47.6333         0.999686        -115.132                1        -115.125      0.000303177         17.3496
60.08                0.000354302        -48.2429         0.999687        -115.151                1        -115.144      0.000298251         18.2585
60.09                 0.00034842        -48.8723         0.999689         -115.17                1        -115.163      0.000293404         19.1983
60.1                 0.000342573        -49.5224          0.99969        -115.189                1        -115.182      0.000288642           20.17
60.11                0.000336762        -50.1943         0.999691        -115.208                1        -115.201      0.000283967         21.1745
60.12                 0.00033099        -50.8888         0.999692        -115.227                1         -115.22      0.000279386         22.2129
60.13                 0.00032526        -51.6071         0.999693        -115.246                1        -115.239      0.000274901          23.286
60.14                0.000319574        -52.3502         0.999695        -115.265                1        -115.258      0.000270519         24.3949
60.15                0.000313935        -53.1193         0.999696        -115.283                1        -115.276      0.000266245         25.5404
60.16                0.000308346        -53.9156         0.999697        -115.302                1        -115.295      0.000262083         26.7233
60.17                0.000302809        -54.7403         0.999698        -115.321                1        -115.314      0.000258039         27.9444
60.18                0.000297328        -55.5947         0.999699         -115.34                1        -115.333      0.000254119         29.2042
60.19                0.000291907        -56.4802           0.9997        -115.359                1        -115.352      0.000250329         30.5033
60.2                  0.00028655        -57.3982         0.999702        -115.378                1        -115.371      0.000246675         31.8421
60.21                0.000281259        -58.3501         0.999703        -115.397                1         -115.39      0.000243163         33.2209
60.22                 0.00027604        -59.3374         0.999704        -115.416                1        -115.409      0.000239798         34.6396
60.23                0.000270897        -60.3616         0.999705        -115.435                1        -115.428      0.000236589         36.0982
60.24                0.000265834        -61.4244         0.999706        -115.454                1        -115.446       0.00023354         37.5962
60.25                0.000260857        -62.5272         0.999707        -115.473                1        -115.465      0.000230659         39.1332
60.26                0.000255971        -63.6717         0.999708        -115.492                1        -115.484      0.000227952         40.7081
60.27                0.000251182        -64.8596          0.99971        -115.511                1        -115.503      0.000225424           42.32
60.28                0.000246496        -66.0923         0.999711         -115.53                1        -115.522      0.000223083         43.9673
60.29                0.000241918        -67.3715         0.999712        -115.549                1        -115.541      0.000220934         45.6483
60.3                 0.000237456        -68.6986         0.999713        -115.567                1         -115.56      0.000218982         47.3611
60.31                0.000233117        -70.0752         0.999714        -115.586                1        -115.579      0.000217234         49.1031
60.32                0.000228908        -71.5025         0.999715        -115.605                1        -115.597      0.000215693         50.8719
60.33                0.000224836        -72.9817         0.999717        -115.624                1        -115.616      0.000214365         52.6644
60.34                 0.00022091        -74.5138         0.999718        -115.643                1        -115.635      0.000213252         54.4775
60.35                0.000217138        -76.0998         0.999719        -115.662                1        -115.654       0.00021236         56.3076
60.36                0.000213528          -77.74          0.99972        -115.681                1        -115.673       0.00021169         58.1513
60.37                0.000210089        -79.4348         0.999721          -115.7                1        -115.692      0.000211244         60.0045
60.38                 0.00020683        -81.1841         0.999722        -115.719                1        -115.711      0.000211025         61.8634
60.39                 0.00020376        -82.9874         0.999723        -115.738                1         -115.73      0.000211031          63.724
60.4                 0.000200887        -84.8437         0.999725        -115.757                1        -115.749      0.000211264         65.5822
60.41                0.000198222        -86.7517         0.999726        -115.776                1        -115.767      0.000211723          67.434
60.42                0.000195772        -88.7094         0.999727        -115.795                1        -115.786      0.000212405         69.2756
60.43                0.000193547        -90.7143         0.999728        -115.814                1        -115.805      0.000213309          71.103
60.44                0.000191554        -92.7633         0.999729        -115.833                1        -115.824      0.000214433         72.9127
60.45                  0.0001898         -94.853          0.99973        -115.851                1        -115.843      0.000215771         74.7012
60.46                0.000188294         -96.979         0.999731         -115.87                1        -115.862      0.000217321         76.4654
60.47                0.000187041        -99.1366         0.999733        -115.889                1        -115.881      0.000219077         78.2024
60.48                0.000186047        -101.321         0.999734        -115.908                1          -115.9      0.000221035         79.9097
60.49                0.000185315        -103.526         0.999735        -115.927                1        -115.919      0.000223189         81.5848
60.5                 0.000184851        -105.745         0.999736        -115.946                1        -115.938      0.000225533         83.2258
60.51                0.000184655        -107.974         0.999737        -115.965                1        -115.956      0.000228062          84.831
60.52                0.000184729        -110.204         0.999738        -115.984                1        -115.975      0.000230769          86.399
60.53                0.000185073         -112.43         0.999739        -116.003                1        -115.994      0.000233648         87.9288
60.54                0.000185686        -114.646          0.99974        -116.022                1        -116.013      0.000236692         89.4195
60.55                0.000186565        -116.845         0.999742        -116.041                1        -116.032      0.000239896         90.8706
60.56                0.000187707        -119.022         0.999743         -116.06                1        -116.051      0.000243252         92.2817
60.57                0.000189107         -121.17         0.999744        -116.079                1         -116.07      0.000246754         93.6527
60.58                 0.00019076        -123.286         0.999745        -116.098                1        -116.089      0.000250396         94.9838
60.59                0.000192659        -125.363         0.999746        -116.117                1        -116.108      0.000254172         96.2751
60.6                 0.000194798        -127.399         0.999747        -116.135                1        -116.126      0.000258075         97.5271
60.61                0.000197168         -129.39         0.999748        -116.154                1        -116.145      0.000262101         98.7403
60.62                0.000199762        -131.333         0.999749        -116.173                1        -116.164      0.000266242         99.9154
60.63                0.000202572        -133.225         0.999751        -116.192                1        -116.183      0.000270494         101.053
60.64                0.000205588        -135.066         0.999752        -116.211                1        -116.202      0.000274851         102.154
60.65                0.000208801        -136.853         0.999753         -116.23                1        -116.221      0.000279308          103.22
60.66                0.000212204        -138.586         0.999754        -116.249                1         -116.24      0.000283861         104.251
60.67                0.000215787        -140.264         0.999755        -116.268                1        -116.259      0.000288504         105.247
60.68                0.000219541        -141.889         0.999756        -116.287                1        -116.278      0.000293233         106.212
60.69                0.000223458        -143.459         0.999757        -116.306                1        -116.297      0.000298045         107.144
60.7                 0.000227529        -144.975         0.999758        -116.325                1        -116.315      0.000302933         108.046
60.71                0.000231747        -146.439          0.99976        -116.344                1        -116.334      0.000307896         108.918
60.72                0.000236104        -147.852         0.999761        -116.363                1        -116.353      0.000312928         109.761
60.73                0.000240592        -149.215         0.999762        -116.382                1        -116.372      0.000318028         110.576
60.74                0.000245203        -150.528         0.999763        -116.401                1        -116.391       0.00032319         111.364
60.75                0.000249932        -151.794         0.999764         -116.42                1         -116.41      0.000328412         112.127
60.76                0.000254772        -153.015         0.999765        -116.438                1        -116.429      0.000333692         112.865
60.77                0.000259715        -154.191         0.999766        -116.457                1        -116.448      0.000339025         113.579
60.78                0.000264758        -155.324         0.999767        -116.476                1        -116.467       0.00034441         114.269
60.79                0.000269894        -156.416         0.999768        -116.495                1        -116.486      0.000349844         114.938
60.8                 0.000275117        -157.469          0.99977        -116.514                1        -116.504      0.000355324         115.585
60.81                0.000280424        -158.484         0.999771        -116.533                1        -116.523      0.000360848         116.211
60.82                0.000285809        -159.462         0.999772        -116.552                1        -116.542      0.000366414         116.818
60.83                0.000291268        -160.406         0.999773        -116.571                1        -116.561       0.00037202         117.405
60.84                0.000296796        -161.316         0.999774         -116.59                1         -116.58      0.000377663         117.974
60.85                0.000302391        -162.195         0.999775        -116.609                1        -116.599      0.000383343         118.526
60.86                0.000308048        -163.042         0.999776        -116.628                1        -116.618      0.000389056          119.06
60.87                0.000313764        -163.861         0.999777        -116.647                1        -116.637      0.000394802         119.578
60.88                0.000319535        -164.652         0.999778        -116.666                1        -116.656      0.000400579         120.081
60.89                 0.00032536        -165.416         0.999779        -116.685                1        -116.675      0.000406385         120.568
60.9                 0.000331234        -166.154         0.999781        -116.704                1        -116.693      0.000412218         121.041
60.91                0.000337155        -166.868         0.999782        -116.722                1        -116.712      0.000418078         121.499
60.92                 0.00034312        -167.559         0.999783        -116.741                1        -116.731      0.000423964         121.944
60.93                0.000349128        -168.228         0.999784         -116.76                1         -116.75      0.000429873         122.377
60.94                0.000355176        -168.875         0.999785        -116.779                1        -116.769      0.000435804         122.796
60.95                0.000361262        -169.502         0.999786        -116.798                1        -116.788      0.000441757         123.204
60.96                0.000367384        -170.109         0.999787        -116.817                1        -116.807      0.000447731           123.6
60.97                0.000373539        -170.698         0.999788        -116.836                1        -116.826      0.000453723         123.984
60.98                0.000379727        -171.269         0.999789        -116.855                1        -116.845      0.000459735         124.358
60.99                0.000385946        -171.823          0.99979        -116.874                1        -116.864      0.000465763         124.722
61                   0.000392193        -172.361         0.999791        -116.893                1        -116.882      0.000471809         125.075
61.01                0.000398468        -172.883         0.999792        -116.912                1        -116.901      0.000477869         125.419
61.02                0.000404769         -173.39         0.999794        -116.931                1         -116.92      0.000483945         125.753
61.03                0.000411095        -173.882         0.999795         -116.95                1        -116.939      0.000490035         126.078
61.04                0.000417445        -174.361         0.999796        -116.969                1        -116.958      0.000496138         126.395
61.05                0.000423817        -174.827         0.999797        -116.988                1        -116.977      0.000502254         126.703
61.06                 0.00043021         -175.28         0.999798        -117.007                1        -116.996      0.000508381         127.003
61.07                0.000436623        -175.721         0.999799        -117.026                1        -117.015       0.00051452         127.295
61.08                0.000443055        -176.151           0.9998        -117.044                1        -117.034       0.00052067          127.58
61.09                0.000449506        -176.569         0.999801        -117.063                1        -117.053      0.000526829         127.857
61.1                 0.000455973        -176.977         0.999802        -117.082                1        -117.072      0.000532998         128.127
61.11                0.000462457        -177.374         0.999803        -117.101                1         -117.09      0.000539176          128.39
61.12                0.000468956        -177.761         0.999804         -117.12                1        -117.109      0.000545362         128.647
61.13                 0.00047547        -178.139         0.999805        -117.139                1        -117.128      0.000551556         128.897
61.14                0.000481998        -178.508         0.999806        -117.158                1        -117.147      0.000557757         129.141
61.15                0.000488539        -178.868         0.999808        -117.177                1        -117.166      0.000563965         129.379
61.16                0.000495093        -179.219         0.999809        -117.196                1        -117.185      0.000570179         129.611
61.17                0.000501658        -179.562          0.99981        -117.215                1        -117.204      0.000576399         129.837
61.18                0.000508235        -179.898         0.999811        -117.234                1        -117.223      0.000582625         130.058
61.19                0.000514822         179.774         0.999812        -117.253                1        -117.242      0.000588856         130.274
61.2                 0.000521419         179.454         0.999813        -117.272                1        -117.261      0.000595091         130.484
61.21                0.000528026          179.14         0.999814        -117.291                1         -117.28      0.000601331          130.69
61.22                0.000534641         178.833         0.999815         -117.31                1        -117.298      0.000607574          130.89
61.23                0.000541265         178.533         0.999816        -117.329                1        -117.317      0.000613821         131.086
61.24                0.000547897         178.239         0.999817        -117.347                1        -117.336      0.000620071         131.277
61.25                0.000554536         177.951         0.999818        -117.366                1        -117.355      0.000626324         131.464
61.26                0.000561182          177.67         0.999819        -117.385                1        -117.374       0.00063258         131.647
61.27                0.000567834         177.393          0.99982        -117.404                1        -117.393      0.000638837         131.825
61.28                0.000574493         177.122         0.999821        -117.423                1        -117.412      0.000645097         131.999
61.29                0.000581157         176.857         0.999822        -117.442                1        -117.431      0.000651358          132.17
61.3                 0.000587826         176.597         0.999824        -117.461                1         -117.45       0.00065762         132.336
61.31                  0.0005945         176.341         0.999825         -117.48                1        -117.469      0.000663883         132.499
61.32                0.000601179         176.091         0.999826        -117.499                1        -117.488      0.000670147         132.658
61.33                0.000607861         175.845         0.999827        -117.518                1        -117.507      0.000676411         132.813
61.34                0.000614548         175.603         0.999828        -117.537                1        -117.525      0.000682676         132.966
61.35                0.000621238         175.366         0.999829        -117.556                1        -117.544       0.00068894         133.114
61.36                 0.00062793         175.134          0.99983        -117.575                1        -117.563      0.000695204          133.26
61.37                0.000634626         174.905         0.999831        -117.594                1        -117.582      0.000701468         133.402
61.38                0.000641324          174.68         0.999832        -117.613                1        -117.601       0.00070773         133.542
61.39                0.000648024         174.459         0.999833        -117.632                1         -117.62      0.000713992         133.678
61.4                 0.000654726         174.242         0.999834         -117.65                1        -117.639      0.000720252         133.811
61.41                 0.00066143         174.028         0.999835        -117.669                1        -117.658      0.000726511         133.942
61.42                0.000668135         173.818         0.999836        -117.688                1        -117.677      0.000732768          134.07
61.43                 0.00067484         173.611         0.999837        -117.707                1        -117.696      0.000739023         134.195
61.44                0.000681547         173.408         0.999838        -117.726                1        -117.715      0.000745276         134.317
61.45                0.000688254         173.208         0.999839        -117.745                1        -117.734      0.000751526         134.437
61.46                0.000694961         173.011          0.99984        -117.764                1        -117.752      0.000757774         134.554
61.47                0.000701668         172.817         0.999841        -117.783                1        -117.771      0.000764019         134.669
61.48                0.000708375         172.626         0.999842        -117.802                1         -117.79      0.000770262         134.781
61.49                0.000715081         172.437         0.999843        -117.821                1        -117.809      0.000776501         134.891
61.5                 0.000721786         172.252         0.999844         -117.84                1        -117.828      0.000782737         134.999
61.51                0.000728491         172.069         0.999846        -117.859                1        -117.847      0.000788969         135.105
61.52                0.000735194         171.889         0.999847        -117.878                1        -117.866      0.000795197         135.208
61.53                0.000741896         171.712         0.999848        -117.897                1        -117.885      0.000801422          135.31
61.54                0.000748596         171.537         0.999849        -117.916                1        -117.904      0.000807643         135.409
61.55                0.000755294         171.364          0.99985        -117.935                1        -117.923      0.000813859         135.506
61.56                 0.00076199         171.194         0.999851        -117.953                1        -117.942      0.000820071         135.601
61.57                0.000768684         171.026         0.999852        -117.972                1        -117.961      0.000826279         135.695
61.58                0.000775376          170.86         0.999853        -117.991                1        -117.979      0.000832482         135.786
61.59                0.000782064         170.696         0.999854         -118.01                1        -117.998       0.00083868         135.876
61.6                  0.00078875         170.535         0.999855        -118.029                1        -118.017      0.000844873         135.963
61.61                0.000795433         170.376         0.999856        -118.048                1        -118.036      0.000851061         136.049
61.62                0.000802112         170.218         0.999857        -118.067                1        -118.055      0.000857244         136.134
61.63                0.000808788         170.063         0.999858        -118.086                1        -118.074      0.000863421         136.216
61.64                 0.00081546         169.909         0.999859        -118.105                1        -118.093      0.000869592         136.297
61.65                0.000822129         169.758          0.99986        -118.124                1        -118.112      0.000875758         136.376
61.66                0.000828793         169.608         0.999861        -118.143                1        -118.131      0.000881918         136.454
61.67                0.000835453          169.46         0.999862        -118.162                1         -118.15      0.000888071          136.53
61.68                0.000842109         169.314         0.999863        -118.181                1        -118.169      0.000894219         136.605
61.69                0.000848761         169.169         0.999864          -118.2                1        -118.188       0.00090036         136.678
61.7                 0.000855407         169.027         0.999865        -118.219                1        -118.206      0.000906495         136.749
61.71                0.000862049         168.885         0.999866        -118.238                1        -118.225      0.000912623          136.82
61.72                0.000868685         168.746         0.999867        -118.257                1        -118.244      0.000918744         136.889
61.73                0.000875317         168.608         0.999868        -118.275                1        -118.263      0.000924859         136.956
61.74                0.000881943         168.471         0.999869        -118.294                1        -118.282      0.000930966         137.022
61.75                0.000888563         168.336          0.99987        -118.313                1        -118.301      0.000937067         137.087
61.76                0.000895178         168.202         0.999871        -118.332                1         -118.32       0.00094316          137.15
61.77                0.000901787          168.07         0.999872        -118.351                1        -118.339      0.000949245         137.213
61.78                0.000908389         167.939         0.999873         -118.37                1        -118.358      0.000955323         137.274
61.79                0.000914986          167.81         0.999874        -118.389                1        -118.377      0.000961394         137.333
61.8                 0.000921576         167.682         0.999875        -118.408                1        -118.396      0.000967456         137.392
61.81                 0.00092816         167.555         0.999876        -118.427                1        -118.415      0.000973511         137.449
61.82                0.000934737         167.429         0.999877        -118.446                1        -118.434      0.000979558         137.506
61.83                0.000941307         167.305         0.999878        -118.465                1        -118.452      0.000985596         137.561
61.84                 0.00094787         167.181         0.999879        -118.484                1        -118.471      0.000991626         137.615
61.85                0.000954426         167.059          0.99988        -118.503                1         -118.49      0.000997648         137.668
61.86                0.000960975         166.939         0.999881        -118.522                1        -118.509       0.00100366         137.719
61.87                0.000967516         166.819         0.999882        -118.541                1        -118.528       0.00100967          137.77
61.88                0.000974049           166.7         0.999883         -118.56                1        -118.547       0.00101566          137.82
61.89                0.000980575         166.583         0.999884        -118.578                1        -118.566       0.00102165         137.869
61.9                 0.000987093         166.467         0.999885        -118.597                1        -118.585       0.00102763         137.917
61.91                0.000993603         166.351         0.999886        -118.616                1        -118.604       0.00103359         137.963
61.92                 0.00100011         166.237         0.999887        -118.635                1        -118.623       0.00103955         138.009
61.93                  0.0010066         166.124         0.999888        -118.654                1        -118.642        0.0010455         138.054
61.94                 0.00101308         166.011         0.999889        -118.673                1        -118.661       0.00105144         138.098
61.95                 0.00101956           165.9          0.99989        -118.692                1         -118.68       0.00105738         138.141
61.96                 0.00102603         165.789         0.999891        -118.711                1        -118.698        0.0010633         138.183
61.97                 0.00103249          165.68         0.999892         -118.73                1        -118.717       0.00106921         138.225