! TOUCHSTONE file generated by CST MICROWAVE STUDIO
! Date and time: Sun Mar  3 12:20:13 2024
! Project name: aire_def.cst
! Parameters = {d=8.9}
! Header version: 2018
! Port assignment regex: !\s*Touchstone port\s*([0-9]+)\s*=\s*(CST MWS port|CST DS port)\s*([0-9]+|Zmin|Zmax)\s*\(\"(.*)\"\)(\s*mode\s*([0-9]+))?.*
! Touchstone port assignment:
! Touchstone port 1 = CST MWS port 1 ("")
! Touchstone port 2 = CST MWS port 2 ("")
# GHz S MA R 376.7
60                   0.000416374        -98.6335         0.999549        -158.221                1         -158.22       0.00040114        -44.8264
60.01                0.000410654         -99.169         0.999553        -158.247                1        -158.246      0.000394361        -44.4233
60.02                0.000404962        -99.7193         0.999558        -158.273                1        -158.272      0.000387604        -44.0054
60.03                0.000399302        -100.285         0.999562          -158.3                1        -158.299      0.000380871        -43.5719
60.04                0.000393673        -100.867         0.999567        -158.326                1        -158.325      0.000374163        -43.1222
60.05                0.000388079        -101.465         0.999571        -158.352                1        -158.351      0.000367482        -42.6553
60.06                0.000382521         -102.08         0.999575        -158.378                1        -158.377      0.000360829        -42.1704
60.07                   0.000377        -102.713          0.99958        -158.405                1        -158.403      0.000354205        -41.6665
60.08                0.000371519        -103.365         0.999584        -158.431                1         -158.43      0.000347613        -41.1427
60.09                 0.00036608        -104.035         0.999588        -158.457                1        -158.456      0.000341054        -40.5978
60.1                 0.000360684        -104.726         0.999593        -158.484                1        -158.482       0.00033453        -40.0309
60.11                0.000355335        -105.437         0.999597         -158.51                1        -158.508      0.000328043        -39.4407
60.12                0.000350035         -106.17         0.999601        -158.536                1        -158.534      0.000321596        -38.8259
60.13                0.000344786        -106.925         0.999606        -158.562                1        -158.561      0.000315191        -38.1852
60.14                 0.00033959        -107.703          0.99961        -158.589                1        -158.587       0.00030883        -37.5172
60.15                0.000334452        -108.504         0.999614        -158.615                1        -158.613      0.000302517        -36.8203
60.16                0.000329373         -109.33         0.999618        -158.641                1        -158.639      0.000296254         -36.093
60.17                0.000324357        -110.182         0.999622        -158.668                1        -158.665      0.000290045        -35.3336
60.18                0.000319408         -111.06         0.999627        -158.694                1        -158.692      0.000283892        -34.5402
60.19                0.000314527        -111.965         0.999631         -158.72                1        -158.718      0.000277801         -33.711
60.2                  0.00030972        -112.898         0.999635        -158.746                1        -158.744      0.000271775         -32.844
60.21                 0.00030499        -113.861         0.999639        -158.773                1         -158.77      0.000265818         -31.937
60.22                0.000300341        -114.853         0.999643        -158.799                1        -158.796      0.000259935        -30.9877
60.23                0.000295777        -115.876         0.999647        -158.825                1        -158.823      0.000254131         -29.994
60.24                0.000291302         -116.93         0.999651        -158.852                1        -158.849      0.000248412        -28.9533
60.25                0.000286921        -118.017         0.999655        -158.878                1        -158.875      0.000242783         -27.863
60.26                0.000282639        -119.137         0.999659        -158.904                1        -158.901      0.000237252        -26.7206
60.27                 0.00027846        -120.291         0.999663         -158.93                1        -158.928      0.000231824        -25.5233
60.28                 0.00027439        -121.479         0.999667        -158.957                1        -158.954      0.000226507        -24.2684
60.29                0.000270433        -122.703         0.999671        -158.983                1         -158.98       0.00022131         -22.953
60.3                 0.000266596        -123.963         0.999675        -159.009                1        -159.006       0.00021624        -21.5743
60.31                0.000262883        -125.258         0.999679        -159.035                1        -159.033      0.000211306        -20.1296
60.32                  0.0002593         -126.59         0.999683        -159.062                1        -159.059       0.00020652        -18.6161
60.33                0.000255854        -127.959         0.999687        -159.088                1        -159.085      0.000201889        -17.0313
60.34                 0.00025255        -129.364         0.999691        -159.114                1        -159.111      0.000197426        -15.3727
60.35                0.000249394        -130.806         0.999695        -159.141                1        -159.137      0.000193142        -13.6384
60.36                0.000246392        -132.284         0.999699        -159.167                1        -159.164      0.000189049        -11.8266
60.37                 0.00024355        -133.798         0.999703        -159.193                1         -159.19       0.00018516        -9.93621
60.38                0.000240875        -135.347         0.999706        -159.219                1        -159.216      0.000181486         -7.9665
60.39                0.000238371        -136.929          0.99971        -159.246                1        -159.242      0.000178043        -5.91763
60.4                 0.000236045        -138.544         0.999714        -159.272                1        -159.269      0.000174842        -3.79056
60.41                0.000233903         -140.19         0.999718        -159.298                1        -159.295      0.000171897        -1.58718
60.42                 0.00023195        -141.866         0.999721        -159.324                1        -159.321      0.000169222        0.689546
60.43                 0.00023019        -143.569         0.999725        -159.351                1        -159.347      0.000166828          3.0355
60.44                 0.00022863        -145.297         0.999729        -159.377                1        -159.374      0.000164729         5.44539
60.45                0.000227272        -147.048         0.999733        -159.403                1          -159.4      0.000162935         7.91269
60.46                0.000226122        -148.819         0.999736         -159.43                1        -159.426      0.000161456         10.4297
60.47                0.000225182        -150.607          0.99974        -159.456                1        -159.452        0.0001603         12.9877
60.48                0.000224456        -152.409         0.999744        -159.482                1        -159.479      0.000159474         15.5769
60.49                0.000223945        -154.221         0.999747        -159.508                1        -159.505      0.000158984         18.1869
60.5                 0.000223653        -156.041         0.999751        -159.535                1        -159.531      0.000158831         20.8065
60.51                0.000223579        -157.864         0.999754        -159.561                1        -159.557      0.000159017         23.4247
60.52                0.000223725        -159.688         0.999758        -159.587                1        -159.584       0.00015954         26.0302
60.53                0.000224089        -161.508         0.999761        -159.613                1         -159.61      0.000160395         28.6121
60.54                0.000224672        -163.321         0.999765         -159.64                1        -159.636      0.000161579         31.1601
60.55                0.000225472        -165.125         0.999769        -159.666                1        -159.662      0.000163082         33.6646
60.56                0.000226486        -166.914         0.999772        -159.692                1        -159.689      0.000164897         36.1173
60.57                0.000227713        -168.688         0.999776        -159.718                1        -159.715      0.000167011         38.5106
60.58                0.000229149        -170.441         0.999779        -159.745                1        -159.741      0.000169415         40.8385
60.59                 0.00023079        -172.172         0.999782        -159.771                1        -159.768      0.000172095         43.0958
60.6                 0.000232632        -173.879         0.999786        -159.797                1        -159.794      0.000175038         45.2788
60.61                 0.00023467        -175.558         0.999789        -159.824                1         -159.82      0.000178231         47.3848
60.62                0.000236901        -177.208         0.999793         -159.85                1        -159.846       0.00018166         49.4122
60.63                0.000239318        -178.828         0.999796        -159.876                1        -159.873      0.000185311         51.3602
60.64                0.000241916         179.586           0.9998        -159.902                1        -159.899      0.000189173          53.229
60.65                0.000244689         178.032         0.999803        -159.929                1        -159.925       0.00019323         55.0192
60.66                0.000247633         176.514         0.999806        -159.955                1        -159.952      0.000197472         56.7322
60.67                 0.00025074         175.031          0.99981        -159.981                1        -159.978      0.000201885         58.3699
60.68                0.000254005         173.584         0.999813        -160.007                1        -160.004      0.000206459         59.9344
60.69                0.000257422         172.173         0.999816        -160.034                1         -160.03      0.000211183          61.428
60.7                 0.000260986         170.799         0.999819         -160.06                1        -160.057      0.000216046         62.8535
60.71                 0.00026469         169.461         0.999823        -160.086                1        -160.083      0.000221039         64.2135
60.72                0.000268529         168.159         0.999826        -160.112                1        -160.109      0.000226152         65.5108
60.73                0.000272497         166.894         0.999829        -160.139                1        -160.136      0.000231379         66.7484
60.74                0.000276589         165.664         0.999832        -160.165                1        -160.162       0.00023671         67.9289
60.75                0.000280799          164.47         0.999836        -160.191                1        -160.188      0.000242138         69.0551
60.76                0.000285122          163.31         0.999839        -160.217                1        -160.214      0.000247657         70.1297
60.77                0.000289554         162.183         0.999842        -160.244                1        -160.241       0.00025326         71.1554
60.78                0.000294089          161.09         0.999845         -160.27                1        -160.267      0.000258941         72.1346
60.79                0.000298722         160.029         0.999848        -160.296                1        -160.293      0.000264695         73.0698
60.8                  0.00030345             159         0.999851        -160.322                1         -160.32      0.000270517         73.9633
60.81                0.000308268         158.002         0.999854        -160.349                1        -160.346      0.000276403         74.8173
60.82                0.000313171         157.033         0.999858        -160.375                1        -160.372      0.000282347         75.6339
60.83                0.000318156         156.093         0.999861        -160.401                1        -160.399      0.000288347          76.415
60.84                 0.00032322         155.181         0.999864        -160.427                1        -160.425      0.000294397         77.1625
60.85                0.000328358         154.297         0.999867        -160.454                1        -160.451      0.000300495         77.8783
60.86                0.000333566         153.438          0.99987         -160.48                1        -160.477      0.000306638         78.5639
60.87                0.000338843         152.605         0.999873        -160.506                1        -160.504      0.000312822          79.221
60.88                0.000344184         151.797         0.999876        -160.532                1         -160.53      0.000319044          79.851
60.89                0.000349587         151.012         0.999879        -160.559                1        -160.556      0.000325303         80.4554
60.9                 0.000355049         150.251         0.999882        -160.585                1        -160.583      0.000331596         81.0354
60.91                0.000360566         149.511         0.999885        -160.611                1        -160.609       0.00033792         81.5924
60.92                0.000366137         148.793         0.999888        -160.637                1        -160.635      0.000344273         82.1274
60.93                 0.00037176         148.095          0.99989        -160.664                1        -160.662      0.000350654         82.6417
60.94                0.000377431         147.417         0.999893         -160.69                1        -160.688       0.00035706         83.1361
60.95                0.000383148         146.758         0.999896        -160.716                1        -160.714       0.00036349         83.6117
60.96                 0.00038891         146.118         0.999899        -160.742                1        -160.741      0.000369942         84.0694
60.97                0.000394715         145.495         0.999902        -160.769                1        -160.767      0.000376416         84.5101
60.98                 0.00040056          144.89         0.999905        -160.795                1        -160.793      0.000382908         84.9346
60.99                0.000406444           144.3         0.999908        -160.821                1         -160.82      0.000389418         85.3437
61                   0.000412364         143.727          0.99991        -160.847                1        -160.846      0.000395946          85.738
61.01                 0.00041832         143.169         0.999913        -160.874                1        -160.872      0.000402489         86.1182
61.02                 0.00042431         142.626         0.999916          -160.9                1        -160.899      0.000409046         86.4851
61.03                0.000430332         142.097         0.999919        -160.926                1        -160.925      0.000415617         86.8392
61.04                0.000436385         141.582         0.999922        -160.952                1        -160.951        0.0004222          87.181
61.05                0.000442467         141.079         0.999924        -160.979                1        -160.978      0.000428795         87.5112
61.06                0.000448578          140.59         0.999927        -161.005                1        -161.004      0.000435401         87.8302
61.07                0.000454716         140.113          0.99993        -161.031                1         -161.03      0.000442016         88.1386
61.08                0.000460879         139.647         0.999932        -161.057                1        -161.057       0.00044864         88.4366
61.09                0.000467067         139.193         0.999935        -161.084                1        -161.083      0.000455273          88.725
61.1                 0.000473278          138.75         0.999938         -161.11                1        -161.109      0.000461914         89.0039
61.11                0.000479512         138.318          0.99994        -161.136                1        -161.136      0.000468561         89.2738
61.12                0.000485768         137.896         0.999943        -161.162                1        -161.162      0.000475215         89.5351
61.13                0.000492044         137.484         0.999946        -161.189                1        -161.188      0.000481874         89.7881
61.14                 0.00049834         137.081         0.999948        -161.215                1        -161.215      0.000488539         90.0332
61.15                0.000504655         136.687         0.999951        -161.241                1        -161.241      0.000495208         90.2706
61.16                0.000510988         136.303         0.999953        -161.267                1        -161.267      0.000501882         90.5007
61.17                0.000517338         135.927         0.999956        -161.293                1        -161.294      0.000508559         90.7238
61.18                0.000523704         135.559         0.999958         -161.32                1         -161.32      0.000515239         90.9401
61.19                0.000530086         135.199         0.999961        -161.346                1        -161.346      0.000521921         91.1498
61.2                 0.000536483         134.847         0.999964        -161.372                1        -161.373      0.000528606         91.3533
61.21                0.000542895         134.503         0.999966        -161.398                1        -161.399      0.000535293         91.5507
61.22                 0.00054932         134.166         0.999969        -161.425                1        -161.426      0.000541981         91.7423
61.23                0.000555758         133.836         0.999971        -161.451                1        -161.452      0.000548669         91.9283
61.24                0.000562209         133.512         0.999973        -161.477                1        -161.478      0.000555359         92.1089
61.25                0.000568671         133.196         0.999976        -161.503                1        -161.505      0.000562049         92.2842
61.26                0.000575145         132.885         0.999978         -161.53                1        -161.531      0.000568739         92.4545
61.27                0.000581629         132.581         0.999981        -161.556                1        -161.557      0.000575428         92.6199
61.28                0.000588124         132.283         0.999983        -161.582                1        -161.584      0.000582117         92.7807
61.29                0.000594628          131.99         0.999986        -161.608                1         -161.61      0.000588804         92.9369
61.3                 0.000601142         131.703         0.999988        -161.634                1        -161.636       0.00059549         93.0887
61.31                0.000607665         131.422          0.99999        -161.661                1        -161.663      0.000602175         93.2363
61.32                0.000614195         131.145         0.999993        -161.687                1        -161.689      0.000608858         93.3798
61.33                0.000620734         130.874         0.999995        -161.713                1        -161.715      0.000615538         93.5193
61.34                 0.00062728         130.608         0.999997        -161.739                1        -161.742      0.000622216          93.655
61.35                0.000633833         130.346                1        -161.766                1        -161.768      0.000628892         93.7869
61.36                0.000640393          130.09                1        -161.792                1        -161.794      0.000635564         93.9153
61.37                0.000646958         129.837                1        -161.818                1        -161.821      0.000642233         94.0402
61.38                 0.00065353          129.59                1        -161.844                1        -161.847      0.000648899         94.1617
61.39                0.000660107         129.346                1        -161.871                1        -161.874      0.000655561         94.2799
61.4                  0.00066669         129.106                1        -161.897                1          -161.9       0.00066222         94.3949
61.41                0.000673277         128.871                1        -161.923                1        -161.926      0.000668874         94.5069
61.42                0.000679868         128.639                1        -161.949                1        -161.953      0.000675524         94.6159
61.43                0.000686464         128.412                1        -161.975                1        -161.979       0.00068217         94.7219
61.44                0.000693063         128.188                1        -162.002                1        -162.005       0.00068881         94.8252
61.45                0.000699666         127.967                1        -162.028                1        -162.032      0.000695446         94.9257
61.46                0.000706272          127.75                1        -162.054                1        -162.058      0.000702077         95.0236
61.47                0.000712881         127.536                1         -162.08                1        -162.084      0.000708703         95.1189
61.48                0.000719492         127.326                1        -162.107                1        -162.111      0.000715323         95.2117
61.49                0.000726105         127.119                1        -162.133                1        -162.137      0.000721938          95.302
61.5                 0.000732721         126.915                1        -162.159                1        -162.163      0.000728546           95.39
61.51                0.000739338         126.714                1        -162.185                1         -162.19      0.000735149         95.4757
61.52                0.000745957         126.516                1        -162.211                1        -162.216      0.000741746         95.5591
61.53                0.000752577         126.321                1        -162.238                1        -162.242      0.000748336         95.6403
61.54                0.000759198         126.128                1        -162.264                1        -162.269       0.00075492         95.7195
61.55                0.000765819         125.939                1         -162.29                1        -162.295      0.000761498         95.7965
61.56                0.000772441         125.752                1        -162.316                1        -162.321      0.000768068         95.8715
61.57                0.000779063         125.567                1        -162.342                1        -162.348      0.000774632         95.9446
61.58                0.000785685         125.385                1        -162.369                1        -162.374      0.000781188         96.0158
61.59                0.000792307         125.206                1        -162.395                1          -162.4      0.000787738         96.0851
61.6                 0.000798928         125.029                1        -162.421                1        -162.427       0.00079428         96.1525
61.61                0.000805548         124.854                1        -162.447                1        -162.453      0.000800814         96.2183
61.62                0.000812167         124.682                1        -162.474                1        -162.479      0.000807341         96.2822
61.63                0.000818786         124.512                1          -162.5                1        -162.505       0.00081386         96.3445
61.64                0.000825402         124.344                1        -162.526                1        -162.532      0.000820371         96.4052
61.65                0.000832017         124.178                1        -162.552                1        -162.558      0.000826874         96.4642
61.66                0.000838631         124.014                1        -162.578                1        -162.584      0.000833369         96.5217
61.67                0.000845242         123.852                1        -162.605                1        -162.611      0.000839856         96.5777
61.68                0.000851851         123.692                1        -162.631                1        -162.637      0.000846334         96.6321
61.69                0.000858457         123.534                1        -162.657                1        -162.663      0.000852803         96.6851
61.7                 0.000865061         123.378                1        -162.683                1        -162.689      0.000859264         96.7367
61.71                0.000871662         123.224                1        -162.709                1        -162.716      0.000865716         96.7869
61.72                 0.00087826         123.072                1        -162.736                1        -162.742      0.000872158         96.8357
61.73                0.000884855         122.921                1        -162.762                1        -162.768      0.000878592         96.8832
61.74                0.000891446         122.772                1        -162.788                1        -162.794      0.000885017         96.9294
61.75                0.000898033         122.625                1        -162.814                1        -162.821      0.000891432         96.9743
61.76                0.000904617         122.479                1         -162.84                1        -162.847      0.000897837          97.018
61.77                0.000911197         122.335                1        -162.867                1        -162.873      0.000904234         97.0605
61.78                0.000917772         122.192                1        -162.893                1        -162.899       0.00091062         97.1017
61.79                0.000924344         122.051                1        -162.919                1        -162.925      0.000916996         97.1418
61.8                  0.00093091         121.912                1        -162.945                1        -162.952      0.000923363         97.1808
61.81                0.000937472         121.774                1        -162.971                1        -162.978       0.00092972         97.2187
61.82                0.000944029         121.637                1        -162.998                1        -163.004      0.000936066         97.2555
61.83                0.000950581         121.502                1        -163.024                1         -163.03      0.000942402         97.2912
61.84                0.000957128         121.368                1         -163.05                1        -163.056      0.000948727         97.3258
61.85                0.000963669         121.236                1        -163.076                1        -163.083      0.000955042         97.3594
61.86                0.000970205         121.104                1        -163.102                1        -163.109      0.000961347         97.3921
61.87                0.000976735         120.975                1        -163.129                1        -163.135      0.000967641         97.4237
61.88                0.000983259         120.846                1        -163.155                1        -163.161      0.000973923         97.4544
61.89                0.000989777         120.718                1        -163.181                1        -163.187      0.000980195         97.4841
61.9                 0.000996288         120.592                1        -163.207                1        -163.213      0.000986456         97.5129
61.91                 0.00100279         120.467                1        -163.233                1        -163.239      0.000992705         97.5408
61.92                 0.00100929         120.343                1         -163.26                1        -163.265      0.000998944         97.5678
61.93                 0.00101578          120.22                1        -163.286                1        -163.291       0.00100517          97.594
61.94                 0.00102227         120.099                1        -163.312                1        -163.317       0.00101139         97.6192
61.95                 0.00102875         119.978                1        -163.338                1        -163.344       0.00101759         97.6437
61.96                 0.00103522         119.858                1        -163.364                1         -163.37       0.00102378         97.6673
61.97                 0.00104168          119.74                1        -163.391                1        -163.396       0.00102996         97.6901