! TOUCHSTONE file generated by CST MICROWAVE STUDIO
! Date and time: Fri Mar  8 11:35:23 2024
! Project name: aire_def.cst
! Parameters = {d=9.25}
! Header version: 2018
! Port assignment regex: !\s*Touchstone port\s*([0-9]+)\s*=\s*(CST MWS port|CST DS port)\s*([0-9]+|Zmin|Zmax)\s*\(\"(.*)\"\)(\s*mode\s*([0-9]+))?.*
! Touchstone port assignment:
! Touchstone port 1 = CST MWS port 1 ("")
! Touchstone port 2 = CST MWS port 2 ("")
# GHz S MA R 376.7
60                   0.000394996        -42.7626         0.999809        -107.796                1        -107.789       0.00040397         6.34602
60.01                0.000389969        -43.3876         0.999809        -107.814                1        -107.806      0.000397631         6.73398
60.02                0.000384976        -44.0281          0.99981        -107.832                1        -107.824      0.000391311         7.13531
60.03                 0.00038002        -44.6845         0.999811        -107.849                1        -107.841      0.000385011          7.5506
60.04                0.000375101        -45.3575         0.999811        -107.867                1        -107.859      0.000378734         7.98051
60.05                0.000370223        -46.0475         0.999812        -107.885                1        -107.877       0.00037248         8.42573
60.06                0.000365386        -46.7551         0.999813        -107.903                1        -107.894       0.00036625         8.88697
60.07                0.000360593        -47.4808         0.999813         -107.92                1        -107.912      0.000360046         9.36501
60.08                0.000355846        -48.2252         0.999814        -107.938                1         -107.93      0.000353869         9.86064
60.09                0.000351148        -48.9888         0.999814        -107.956                1        -107.947      0.000347722         10.3747
60.1                   0.0003465        -49.7723         0.999815        -107.973                1        -107.965      0.000341604         10.9082
60.11                0.000341905        -50.5762         0.999816        -107.991                1        -107.983       0.00033552         11.4619
60.12                0.000337365        -51.4012         0.999816        -108.009                1            -108      0.000329469          12.037
60.13                0.000332884        -52.2477         0.999817        -108.027                1        -108.018      0.000323455         12.6345
60.14                0.000328464        -53.1165         0.999818        -108.044                1        -108.036      0.000317479         13.2554
60.15                0.000324108        -54.0081         0.999818        -108.062                1        -108.053      0.000311544         13.9011
60.16                0.000319818        -54.9231         0.999819         -108.08                1        -108.071      0.000305652         14.5727
60.17                0.000315598        -55.8621         0.999819        -108.098                1        -108.089      0.000299806         15.2716
60.18                0.000311452        -56.8257          0.99982        -108.115                1        -108.106      0.000294009         15.9991
60.19                0.000307382        -57.8144         0.999821        -108.133                1        -108.124      0.000288264         16.7568
60.2                 0.000303392        -58.8287         0.999821        -108.151                1        -108.142      0.000282573         17.5461
60.21                0.000299485        -59.8692         0.999822        -108.169                1        -108.159      0.000276942         18.3688
60.22                0.000295666        -60.9362         0.999822        -108.186                1        -108.177      0.000271372         19.2264
60.23                0.000291938        -62.0304         0.999823        -108.204                1        -108.195      0.000265869         20.1207
60.24                0.000288305        -63.1519         0.999824        -108.222                1        -108.212      0.000260437         21.0537
60.25                0.000284771        -64.3012         0.999824         -108.24                1         -108.23       0.00025508         22.0271
60.26                 0.00028134        -65.4785         0.999825        -108.257                1        -108.248      0.000249802         23.0431
60.27                0.000278017        -66.6839         0.999826        -108.275                1        -108.265      0.000244611         24.1036
60.28                0.000274805        -67.9177         0.999826        -108.293                1        -108.283       0.00023951         25.2107
60.29                0.000271709        -69.1798         0.999827         -108.31                1        -108.301      0.000234506         26.3665
60.3                 0.000268733        -70.4701         0.999827        -108.328                1        -108.318      0.000229606         27.5733
60.31                0.000265883        -71.7885         0.999828        -108.346                1        -108.336      0.000224816         28.8332
60.32                0.000263161        -73.1345         0.999829        -108.364                1        -108.354      0.000220144         30.1482
60.33                0.000260574        -74.5079         0.999829        -108.381                1        -108.371      0.000215596         31.5205
60.34                0.000258124         -75.908          0.99983        -108.399                1        -108.389      0.000211183          32.952
60.35                0.000255817        -77.3341          0.99983        -108.417                1        -108.407      0.000206911         34.4446
60.36                0.000253657        -78.7854         0.999831        -108.435                1        -108.424       0.00020279         35.9999
60.37                0.000251648        -80.2608         0.999832        -108.452                1        -108.442      0.000198829         37.6195
60.38                0.000249794        -81.7592         0.999832         -108.47                1         -108.46      0.000195038         39.3042
60.39                0.000248098        -83.2793         0.999833        -108.488                1        -108.477      0.000191428         41.0551
60.4                 0.000246565        -84.8196         0.999833        -108.506                1        -108.495      0.000188008         42.8722
60.41                0.000245198        -86.3785         0.999834        -108.523                1        -108.513       0.00018479         44.7553
60.42                   0.000244        -87.9543         0.999834        -108.541                1         -108.53      0.000181784         46.7037
60.43                0.000242974         -89.545         0.999835        -108.559                1        -108.548         0.000179         48.7158
60.44                0.000242122        -91.1487         0.999836        -108.576                1        -108.566      0.000176449         50.7893
60.45                0.000241447        -92.7632         0.999836        -108.594                1        -108.583      0.000174142         52.9212
60.46                 0.00024095        -94.3863         0.999837        -108.612                1        -108.601      0.000172087         55.1075
60.47                0.000240633        -96.0157         0.999837         -108.63                1        -108.619      0.000170295         57.3436
60.48                0.000240497        -97.6491         0.999838        -108.647                1        -108.636      0.000168773         59.6239
60.49                0.000240543        -99.2841         0.999839        -108.665                1        -108.654      0.000167529          61.942
60.5                  0.00024077        -100.918         0.999839        -108.683                1        -108.672      0.000166569         64.2908
60.51                0.000241179        -102.549          0.99984        -108.701                1        -108.689      0.000165898         66.6627
60.52                0.000241769        -104.175          0.99984        -108.718                1        -108.707      0.000165519         69.0495
60.53                0.000242539        -105.793         0.999841        -108.736                1        -108.725      0.000165434         71.4427
60.54                0.000243487          -107.4         0.999841        -108.754                1        -108.742      0.000165643         73.8338
60.55                0.000244613        -108.995         0.999842        -108.771                1         -108.76      0.000166145         76.2142
60.56                0.000245912        -110.577         0.999843        -108.789                1        -108.778      0.000166938         78.5755
60.57                0.000247384        -112.141         0.999843        -108.807                1        -108.795      0.000168017         80.9098
60.58                0.000249025        -113.688         0.999844        -108.825                1        -108.813      0.000169377         83.2097
60.59                0.000250832        -115.216         0.999844        -108.842                1        -108.831       0.00017101         85.4685
60.6                 0.000252802        -116.722         0.999845         -108.86                1        -108.848      0.000172909         87.6802
60.61                0.000254932        -118.205         0.999845        -108.878                1        -108.866      0.000175065         89.8397
60.62                0.000257217        -119.665         0.999846        -108.896                1        -108.884      0.000177468         91.9426
60.63                0.000259653          -121.1         0.999847        -108.913                1        -108.901      0.000180108         93.9854
60.64                0.000262237         -122.51         0.999847        -108.931                1        -108.919      0.000182976         95.9656
60.65                0.000264965        -123.893         0.999848        -108.949                1        -108.937      0.000186059         97.8811
60.66                0.000267832        -125.249         0.999848        -108.967                1        -108.954      0.000189348         99.7309
60.67                0.000270834        -126.577         0.999849        -108.984                1        -108.972      0.000192832         101.514
60.68                0.000273967        -127.878         0.999849        -109.002                1         -108.99        0.0001965         103.232
60.69                0.000277227        -129.151          0.99985         -109.02                1        -109.007      0.000200341         104.883
60.7                 0.000280608        -130.396          0.99985        -109.037                1        -109.025      0.000204346          106.47
60.71                0.000284108        -131.612         0.999851        -109.055                1        -109.043      0.000208506         107.993
60.72                0.000287721          -132.8         0.999852        -109.073                1         -109.06       0.00021281         109.454
60.73                0.000291444        -133.961         0.999852        -109.091                1        -109.078       0.00021725         110.855
60.74                0.000295273        -135.093         0.999853        -109.108                1        -109.096      0.000221818         112.197
60.75                0.000299204        -136.199         0.999853        -109.126                1        -109.113      0.000226505         113.483
60.76                0.000303232        -137.277         0.999854        -109.144                1        -109.131      0.000231305         114.715
60.77                0.000307354        -138.329         0.999854        -109.162                1        -109.149      0.000236209         115.895
60.78                0.000311567        -139.354         0.999855        -109.179                1        -109.166      0.000241213         117.026
60.79                0.000315867        -140.354         0.999855        -109.197                1        -109.184      0.000246308         118.108
60.8                  0.00032025        -141.329         0.999856        -109.215                1        -109.202      0.000251489         119.145
60.81                0.000324713         -142.28         0.999856        -109.232                1        -109.219      0.000256752         120.138
60.82                0.000329253        -143.206         0.999857         -109.25                1        -109.237       0.00026209         121.089
60.83                0.000333867        -144.109         0.999858        -109.268                1        -109.255      0.000267499         122.001
60.84                0.000338552        -144.989         0.999858        -109.286                1        -109.272      0.000272974         122.876
60.85                0.000343304        -145.846         0.999859        -109.303                1         -109.29      0.000278512         123.714
60.86                0.000348122        -146.682         0.999859        -109.321                1        -109.308      0.000284108         124.518
60.87                0.000353002        -147.497          0.99986        -109.339                1        -109.325      0.000289759          125.29
60.88                0.000357943        -148.292          0.99986        -109.357                1        -109.343      0.000295462          126.03
60.89                 0.00036294        -149.067         0.999861        -109.374                1        -109.361      0.000301212         126.742
60.9                 0.000367993        -149.822         0.999861        -109.392                1        -109.378      0.000307008         127.425
60.91                0.000373099        -150.559         0.999862         -109.41                1        -109.396      0.000312846         128.081
60.92                0.000378255        -151.277         0.999862        -109.428                1        -109.414      0.000318724         128.713
60.93                0.000383461        -151.978         0.999863        -109.445                1        -109.431      0.000324639          129.32
60.94                0.000388712        -152.662         0.999863        -109.463                1        -109.449       0.00033059         129.904
60.95                0.000394009         -153.33         0.999864        -109.481                1        -109.467      0.000336573         130.466
60.96                0.000399348        -153.981         0.999864        -109.498                1        -109.484      0.000342588         131.007
60.97                0.000404729        -154.617         0.999865        -109.516                1        -109.502      0.000348632         131.528
60.98                0.000410149        -155.238         0.999865        -109.534                1         -109.52      0.000354703         132.031
60.99                0.000415608        -155.845         0.999866        -109.552                1        -109.537        0.0003608         132.515
61                   0.000421102        -156.437         0.999866        -109.569                1        -109.555      0.000366921         132.982
61.01                0.000426631        -157.016         0.999867        -109.587                1        -109.573      0.000373064         133.433
61.02                0.000432194        -157.581         0.999867        -109.605                1         -109.59      0.000379229         133.868
61.03                0.000437789        -158.134         0.999868        -109.623                1        -109.608      0.000385415         134.288
61.04                0.000443415        -158.675         0.999869         -109.64                1        -109.626      0.000391619         134.694
61.05                 0.00044907        -159.203         0.999869        -109.658                1        -109.643       0.00039784         135.085
61.06                0.000454754         -159.72          0.99987        -109.676                1        -109.661      0.000404079         135.464
61.07                0.000460465        -160.226          0.99987        -109.693                1        -109.679      0.000410332          135.83
61.08                0.000466202        -160.721         0.999871        -109.711                1        -109.697      0.000416601         136.185
61.09                0.000471964        -161.206         0.999871        -109.729                1        -109.714      0.000422883         136.527
61.1                 0.000477751         -161.68         0.999872        -109.747                1        -109.732      0.000429178         136.859
61.11                 0.00048356        -162.145         0.999872        -109.764                1         -109.75      0.000435485          137.18
61.12                0.000489391        -162.599         0.999873        -109.782                1        -109.767      0.000441803         137.491
61.13                0.000495244        -163.045         0.999873          -109.8                1        -109.785      0.000448131         137.792
61.14                0.000501117        -163.482         0.999874        -109.817                1        -109.803      0.000454469         138.084
61.15                0.000507009         -163.91         0.999874        -109.835                1         -109.82      0.000460817         138.367
61.16                 0.00051292         -164.33         0.999875        -109.853                1        -109.838      0.000467172         138.642
61.17                0.000518849        -164.742         0.999875        -109.871                1        -109.856      0.000473536         138.908
61.18                0.000524796        -165.145         0.999875        -109.888                1        -109.873      0.000479906         139.166
61.19                0.000530758        -165.541         0.999876        -109.906                1        -109.891      0.000486283         139.416
61.2                 0.000536737         -165.93         0.999876        -109.924                1        -109.909      0.000492667         139.659
61.21                 0.00054273        -166.312         0.999877        -109.942                1        -109.926      0.000499055         139.895
61.22                0.000548738        -166.686         0.999877        -109.959                1        -109.944      0.000505449         140.125
61.23                 0.00055476        -167.054         0.999878        -109.977                1        -109.962      0.000511848         140.347
61.24                0.000560794        -167.415         0.999878        -109.995                1        -109.979      0.000518251         140.564
61.25                0.000566842         -167.77         0.999879        -110.012                1        -109.997      0.000524657         140.774
61.26                0.000572901        -168.119         0.999879         -110.03                1        -110.015      0.000531067         140.978
61.27                0.000578972        -168.461          0.99988        -110.048                1        -110.032       0.00053748         141.177
61.28                0.000585054        -168.798          0.99988        -110.066                1         -110.05      0.000543895          141.37
61.29                0.000591147        -169.129         0.999881        -110.083                1        -110.068      0.000550312         141.558
61.3                 0.000597249        -169.455         0.999881        -110.101                1        -110.085      0.000556731         141.741
61.31                 0.00060336        -169.775         0.999882        -110.119                1        -110.103      0.000563152         141.918
61.32                0.000609481         -170.09         0.999882        -110.137                1        -110.121      0.000569574         142.091
61.33                 0.00061561          -170.4         0.999883        -110.154                1        -110.138      0.000575996          142.26
61.34                0.000621747        -170.706         0.999883        -110.172                1        -110.156      0.000582419         142.424
61.35                0.000627892        -171.006         0.999884         -110.19                1        -110.174      0.000588842         142.584
61.36                0.000634044        -171.302         0.999884        -110.207                1        -110.191      0.000595265         142.739
61.37                0.000640203        -171.593         0.999884        -110.225                1        -110.209      0.000601688         142.891
61.38                0.000646368         -171.88         0.999885        -110.243                1        -110.227       0.00060811         143.038
61.39                 0.00065254        -172.163         0.999885        -110.261                1        -110.245      0.000614531         143.182
61.4                 0.000658716        -172.441         0.999886        -110.278                1        -110.262      0.000620951         143.322
61.41                0.000664899        -172.715         0.999886        -110.296                1         -110.28      0.000627369         143.458
61.42                0.000671086        -172.986         0.999887        -110.314                1        -110.298      0.000633786         143.592
61.43                0.000677277        -173.252         0.999887        -110.331                1        -110.315      0.000640201         143.721
61.44                0.000683473        -173.515         0.999888        -110.349                1        -110.333      0.000646614         143.848
61.45                0.000689673        -173.775         0.999888        -110.367                1        -110.351      0.000653024         143.971
61.46                0.000695876         -174.03         0.999889        -110.385                1        -110.368      0.000659432         144.091
61.47                0.000702082        -174.283         0.999889        -110.402                1        -110.386      0.000665837         144.209
61.48                0.000708291        -174.531         0.999889         -110.42                1        -110.404      0.000672239         144.323
61.49                0.000714503        -174.777          0.99989        -110.438         0.999999        -110.421      0.000678637         144.435
61.5                 0.000720718        -175.019          0.99989        -110.455         0.999999        -110.439      0.000685033         144.544
61.51                0.000726934        -175.259         0.999891        -110.473         0.999998        -110.457      0.000691424          144.65
61.52                0.000733152        -175.495         0.999891        -110.491         0.999998        -110.474      0.000697812         144.754
61.53                0.000739371        -175.728         0.999892        -110.509         0.999997        -110.492      0.000704196         144.855
61.54                0.000745592        -175.959         0.999892        -110.526         0.999996         -110.51      0.000710575         144.954
61.55                0.000751813        -176.186         0.999892        -110.544         0.999996        -110.527      0.000716951          145.05
61.56                0.000758035        -176.411         0.999893        -110.562         0.999995        -110.545      0.000723321         145.144
61.57                0.000764257        -176.633         0.999893        -110.579         0.999994        -110.563      0.000729687         145.236
61.58                 0.00077048        -176.853         0.999894        -110.597         0.999994         -110.58      0.000736049         145.326
61.59                0.000776702        -177.069         0.999894        -110.615         0.999993        -110.598      0.000742405         145.413
61.6                 0.000782924        -177.284         0.999895        -110.633         0.999993        -110.616      0.000748755         145.499
61.61                0.000789145        -177.496         0.999895         -110.65         0.999992        -110.633      0.000755101         145.582
61.62                0.000795365        -177.705         0.999895        -110.668         0.999991        -110.651      0.000761441         145.664
61.63                0.000801585        -177.912         0.999896        -110.686         0.999991        -110.669      0.000767775         145.743
61.64                0.000807802        -178.117         0.999896        -110.703          0.99999        -110.687      0.000774103         145.821
61.65                0.000814019         -178.32         0.999897        -110.721          0.99999        -110.704      0.000780426         145.897
61.66                0.000820233         -178.52         0.999897        -110.739         0.999989        -110.722      0.000786742         145.971
61.67                0.000826445        -178.719         0.999897        -110.757         0.999988         -110.74      0.000793052         146.044
61.68                0.000832655        -178.915         0.999898        -110.774         0.999988        -110.757      0.000799355         146.114
61.69                0.000838863        -179.109         0.999898        -110.792         0.999987        -110.775      0.000805652         146.184
61.7                 0.000845068        -179.301         0.999899         -110.81         0.999987        -110.793      0.000811942         146.251
61.71                 0.00085127        -179.491         0.999899        -110.827         0.999986         -110.81      0.000818225         146.317
61.72                0.000857468         -179.68         0.999899        -110.845         0.999985        -110.828      0.000824501         146.381
61.73                0.000863664        -179.866           0.9999        -110.863         0.999985        -110.846       0.00083077         146.444
61.74                0.000869856         179.949           0.9999        -110.881         0.999984        -110.863      0.000837032         146.506
61.75                0.000876044         179.767         0.999901        -110.898         0.999984        -110.881      0.000843286         146.566
61.76                0.000882228         179.586         0.999901        -110.916         0.999983        -110.899      0.000849533         146.625
61.77                0.000888408         179.406         0.999901        -110.934         0.999983        -110.916      0.000855772         146.682
61.78                0.000894583         179.229         0.999902        -110.951         0.999982        -110.934      0.000862003         146.738
61.79                0.000900754         179.053         0.999902        -110.969         0.999981        -110.952      0.000868226         146.793
61.8                 0.000906921         178.878         0.999903        -110.987         0.999981        -110.969      0.000874441         146.846
61.81                0.000913082         178.706         0.999903        -111.005          0.99998        -110.987      0.000880648         146.898
61.82                0.000919238         178.535         0.999903        -111.022          0.99998        -111.005      0.000886847         146.949
61.83                0.000925389         178.365         0.999904         -111.04         0.999979        -111.022      0.000893037         146.999
61.84                0.000931535         178.197         0.999904        -111.058         0.999979         -111.04      0.000899218         147.048
61.85                0.000937675          178.03         0.999904        -111.075         0.999978        -111.058      0.000905391         147.095
61.86                0.000943808         177.865         0.999905        -111.093         0.999977        -111.076      0.000911555         147.142
61.87                0.000949936         177.701         0.999905        -111.111         0.999977        -111.093       0.00091771         147.187
61.88                0.000956058         177.539         0.999906        -111.129         0.999976        -111.111      0.000923856         147.231
61.89                0.000962173         177.378         0.999906        -111.146         0.999976        -111.129      0.000929993         147.275
61.9                 0.000968282         177.218         0.999906        -111.164         0.999975        -111.146       0.00093612         147.317
61.91                0.000974384          177.06         0.999907        -111.182         0.999975        -111.164      0.000942238         147.358
61.92                0.000980479         176.903         0.999907        -111.199         0.999974        -111.182      0.000948346         147.398
61.93                0.000986567         176.747         0.999907        -111.217         0.999974        -111.199      0.000954445         147.437
61.94                0.000992647         176.592         0.999908        -111.235         0.999973        -111.217      0.000960534         147.476
61.95                 0.00099872         176.439         0.999908        -111.252         0.999973        -111.235      0.000966613         147.513
61.96                 0.00100479         176.287         0.999908         -111.27         0.999972        -111.252      0.000972682          147.55
61.97                 0.00101084         176.136         0.999909        -111.288         0.999972         -111.27       0.00097874         147.586