! TOUCHSTONE file generated by CST MICROWAVE STUDIO
! Date and time: Sun Mar  3 12:20:15 2024
! Project name: aire_def.cst
! Parameters = {d=8.7}
! Header version: 2018
! Port assignment regex: !\s*Touchstone port\s*([0-9]+)\s*=\s*(CST MWS port|CST DS port)\s*([0-9]+|Zmin|Zmax)\s*\(\"(.*)\"\)(\s*mode\s*([0-9]+))?.*
! Touchstone port assignment:
! Touchstone port 1 = CST MWS port 1 ("")
! Touchstone port 2 = CST MWS port 2 ("")
# GHz S MA R 376.7
60                      0.000228         -102.79         0.999561         172.945                1         172.959      0.000162573        -56.8086
60.01                0.000221074        -103.116         0.999565         172.915                1         172.928      0.000157404        -55.0064
60.02                 0.00021415        -103.461         0.999569         172.884                1         172.897      0.000152405         -53.083
60.03                 0.00020723        -103.829         0.999573         172.853                1         172.866      0.000147594        -51.0308
60.04                0.000200314         -104.22         0.999576         172.822                1         172.835      0.000142988        -48.8426
60.05                0.000193403        -104.639          0.99958         172.791                1         172.804      0.000138609        -46.5116
60.06                0.000186498        -105.087         0.999584          172.76                1         172.772      0.000134478        -44.0323
60.07                0.000179601        -105.569         0.999587         172.729                1         172.741      0.000130619        -41.4006
60.08                0.000172712        -106.087         0.999591         172.698                1          172.71      0.000127056        -38.6144
60.09                0.000165834        -106.648         0.999595         172.667                1         172.679      0.000123815        -35.6745
60.1                 0.000158968        -107.255         0.999598         172.636                1         172.648      0.000120922         -32.585
60.11                0.000152117        -107.916         0.999602         172.605                1         172.617      0.000118401        -29.3539
60.12                0.000145282        -108.637         0.999605         172.574                1         172.586      0.000116277        -25.9934
60.13                0.000138469        -109.428         0.999609         172.543                1         172.555      0.000114572        -22.5205
60.14                0.000131679        -110.298         0.999613         172.512                1         172.524      0.000113305        -18.9567
60.15                0.000124918        -111.262         0.999616         172.481                1         172.493      0.000112489        -15.3272
60.16                0.000118191        -112.333          0.99962          172.45                1         172.462      0.000112135        -11.6603
60.17                0.000111505        -113.532         0.999623         172.419                1         172.431      0.000112246        -7.98623
60.18                 0.00010487        -114.881         0.999627         172.389                1         172.399      0.000112822        -4.33548
60.19                9.82945e-05        -116.409          0.99963         172.358                1         172.368      0.000113853       -0.737434
60.2                  9.1794e-05        -118.152         0.999634         172.327                1         172.337       0.00011533         2.78104
60.21                8.53861e-05        -120.157         0.999637         172.296                1         172.306      0.000117233         6.19661
60.22                 7.9094e-05        -122.482         0.999641         172.265                1         172.275      0.000119542         9.49022
60.23                7.29489e-05        -125.201         0.999644         172.234                1         172.244      0.000122234         12.6473
60.24                6.69922e-05        -128.409         0.999648         172.203                1         172.213      0.000125284          15.658
60.25                  6.128e-05        -132.226         0.999651         172.172                1         172.182      0.000128667         18.5163
60.26                5.58887e-05        -136.801         0.999654         172.141                1         172.151      0.000132355           21.22
60.27                5.09216e-05        -142.307         0.999658          172.11                1          172.12      0.000136325         23.7699
60.28                4.65161e-05        -148.926         0.999661         172.079                1         172.089      0.000140552         26.1692
60.29                4.28476e-05        -156.798         0.999665         172.048                1         172.058      0.000145013         28.4228
60.3                 4.01201e-05        -165.935         0.999668         172.017                1         172.027      0.000149687         30.5371
60.31                3.85358e-05        -176.106         0.999671         171.986                1         171.996      0.000154555         32.5189
60.32                3.82386e-05         173.213         0.999675         171.955                1         171.965      0.000159598         34.3759
60.33                3.92593e-05         162.726         0.999678         171.924                1         171.934      0.000164799         36.1156
60.34                4.15022e-05         153.067         0.999682         171.893                1         171.903      0.000170145         37.7457
60.35                4.47853e-05         144.603         0.999685         171.862                1         171.872      0.000175621         39.2735
60.36                4.89008e-05          137.42         0.999688         171.831                1         171.841      0.000181216         40.7063
60.37                5.36585e-05         131.424         0.999692           171.8                1          171.81      0.000186918         42.0509
60.38                5.89039e-05         126.443         0.999695          171.77                1         171.779      0.000192718         43.3135
60.39                 6.4519e-05         122.297         0.999698         171.739                1         171.748      0.000198607         44.5002
60.4                 7.04161e-05         118.825         0.999701         171.708                1         171.717      0.000204576         45.6165
60.41                7.65308e-05         115.893         0.999705         171.677                1         171.686      0.000210619         46.6675
60.42                8.28154e-05         113.396         0.999708         171.646                1         171.655      0.000216729         47.6581
60.43                8.92345e-05         111.251         0.999711         171.615                1         171.624      0.000222901         48.5927
60.44                9.57617e-05         109.392         0.999714         171.584                1         171.593      0.000229128         49.4752
60.45                0.000102377         107.768         0.999718         171.553                1         171.562      0.000235407         50.3093
60.46                0.000109064         106.339         0.999721         171.522                1         171.531      0.000241733         51.0986
60.47                0.000115811         105.073         0.999724         171.491                1           171.5      0.000248102         51.8461
60.48                0.000122609         103.944         0.999727          171.46                1         171.469      0.000254511         52.5547
60.49                0.000129449          102.93          0.99973         171.429                1         171.438      0.000260956         53.2271
60.5                 0.000136326         102.016         0.999733         171.398                1         171.407      0.000267435         53.8657
60.51                0.000143235         101.188         0.999737         171.367                1         171.376      0.000273944         54.4727
60.52                0.000150172         100.433          0.99974         171.336                1         171.345      0.000280482         55.0502
60.53                0.000157132         99.7427         0.999743         171.305                1         171.314      0.000287046         55.6002
60.54                0.000164113         99.1088         0.999746         171.274                1         171.283      0.000293634         56.1243
60.55                0.000171114         98.5245         0.999749         171.243                1         171.252      0.000300245         56.6241
60.56                0.000178131         97.9841         0.999752         171.212                1         171.221      0.000306876         57.1013
60.57                0.000185163         97.4828         0.999755         171.181                1          171.19      0.000313526          57.557
60.58                0.000192208         97.0161         0.999758          171.15                1         171.159      0.000320193         57.9927
60.59                0.000199266         96.5807         0.999761         171.119                1         171.128      0.000326877         58.4095
60.6                 0.000206334         96.1732         0.999764         171.088                1         171.097      0.000333575         58.8085
60.61                0.000213413          95.791         0.999767         171.058                1         171.066      0.000340287         59.1907
60.62                0.000220501         95.4316          0.99977         171.027                1         171.035      0.000347012          59.557
60.63                0.000227597          95.093         0.999773         170.996                1         171.004      0.000353749         59.9084
60.64                  0.0002347         94.7732         0.999776         170.965                1         170.973      0.000360496         60.2455
60.65                0.000241811         94.4707         0.999779         170.934                1         170.942      0.000367253         60.5693
60.66                0.000248928         94.1839         0.999782         170.903                1         170.911       0.00037402         60.8804
60.67                0.000256051         93.9116         0.999785         170.872                1          170.88      0.000380794         61.1794
60.68                 0.00026318         93.6526         0.999788         170.841                1         170.849      0.000387576          61.467
60.69                0.000270314         93.4058         0.999791          170.81                1         170.818      0.000394365         61.7438
60.7                 0.000277452         93.1703         0.999794         170.779                1         170.787      0.000401161         62.0102
60.71                0.000284595         92.9453         0.999797         170.748                1         170.756      0.000407962         62.2669
60.72                0.000291742           92.73           0.9998         170.717                1         170.725      0.000414768         62.5142
60.73                0.000298893         92.5236         0.999803         170.686                1         170.694      0.000421579         62.7526
60.74                0.000306047         92.3257         0.999806         170.655                1         170.663      0.000428395         62.9826
60.75                0.000313205         92.1355         0.999809         170.624                1         170.632      0.000435214         63.2044
60.76                0.000320365         91.9526         0.999812         170.593                1         170.601      0.000442036         63.4186
60.77                0.000327529         91.7765         0.999814         170.562                1          170.57      0.000448861         63.6254
60.78                0.000334695         91.6068         0.999817         170.531                1         170.539      0.000455688         63.8251
60.79                0.000341863          91.443          0.99982           170.5                1         170.508      0.000462518         64.0181
60.8                 0.000349033         91.2848         0.999823         170.469                1         170.477      0.000469349         64.2047
60.81                0.000356206         91.1319         0.999826         170.438                1         170.446      0.000476182         64.3851
60.82                 0.00036338         90.9838         0.999829         170.407                1         170.415      0.000483015         64.5595
60.83                0.000370556         90.8405         0.999831         170.376                1         170.384       0.00048985         64.7284
60.84                0.000377734         90.7015         0.999834         170.345                1         170.353      0.000496685         64.8917
60.85                0.000384913         90.5667         0.999837         170.314                1         170.322       0.00050352         65.0499
60.86                0.000392093         90.4357          0.99984         170.283                1         170.292      0.000510355          65.203
60.87                0.000399274         90.3085         0.999842         170.252                1         170.261      0.000517189         65.3514
60.88                0.000406456         90.1847         0.999845         170.221                1          170.23      0.000524023         65.4951
60.89                 0.00041364         90.0643         0.999848         170.191                1         170.199      0.000530856         65.6344
60.9                 0.000420823          89.947         0.999851          170.16                1         170.168      0.000537688         65.7693
60.91                0.000428008         89.8326         0.999853         170.129                1         170.137      0.000544519         65.9002
60.92                0.000435193         89.7211         0.999856         170.098                1         170.106      0.000551348         66.0271
60.93                0.000442378         89.6123         0.999859         170.067                1         170.075      0.000558176         66.1502
60.94                0.000449564          89.506         0.999861         170.036                1         170.044      0.000565001         66.2695
60.95                0.000456749         89.4022         0.999864         170.005                1         170.013      0.000571825         66.3854
60.96                0.000463935         89.3006         0.999867         169.974                1         169.982      0.000578646         66.4978
60.97                0.000471121         89.2013         0.999869         169.943                1         169.951      0.000585464         66.6068
60.98                0.000478307         89.1041         0.999872         169.912                1          169.92       0.00059228         66.7127
60.99                0.000485492         89.0088         0.999875         169.881                1         169.889      0.000599093         66.8155
61                   0.000492677         88.9155         0.999877          169.85                1         169.858      0.000605903         66.9153
61.01                0.000499861         88.8241          0.99988         169.819                1         169.827       0.00061271         67.0123
61.02                0.000507045         88.7343         0.999882         169.788                1         169.796      0.000619513         67.1064
61.03                0.000514228         88.6463         0.999885         169.757                1         169.765      0.000626313         67.1978
61.04                0.000521411         88.5598         0.999887         169.726                1         169.735       0.00063311         67.2866
61.05                0.000528593         88.4749          0.99989         169.695                1         169.704      0.000639902         67.3729
61.06                0.000535773         88.3915         0.999892         169.664                1         169.673      0.000646691         67.4567
61.07                0.000542953         88.3094         0.999895         169.633                1         169.642      0.000653476         67.5381
61.08                0.000550131         88.2287         0.999898         169.602                1         169.611      0.000660256         67.6173
61.09                0.000557309         88.1493           0.9999         169.571                1          169.58      0.000667032         67.6942
61.1                 0.000564485         88.0712         0.999903          169.54                1         169.549      0.000673803         67.7689
61.11                0.000571659         87.9942         0.999905         169.509                1         169.518       0.00068057         67.8415
61.12                0.000578832         87.9184         0.999908         169.478                1         169.487      0.000687332         67.9121
61.13                0.000586004         87.8437          0.99991         169.447                1         169.456       0.00069409         67.9807
61.14                0.000593174           87.77         0.999912         169.416                1         169.425      0.000700842         68.0474
61.15                0.000600342         87.6974         0.999915         169.385                1         169.394      0.000707589         68.1122
61.16                0.000607508         87.6257         0.999917         169.354                1         169.363      0.000714331         68.1752
61.17                0.000614672          87.555          0.99992         169.323                1         169.332      0.000721067         68.2364
61.18                0.000621834         87.4852         0.999922         169.292                1         169.301      0.000727799         68.2959
61.19                0.000628994         87.4162         0.999925         169.261                1         169.271      0.000734524         68.3538
61.2                 0.000636152         87.3481         0.999927          169.23                1          169.24      0.000741244           68.41
61.21                0.000643308         87.2808         0.999929           169.2                1         169.209      0.000747958         68.4646
61.22                0.000650461         87.2143         0.999932         169.169                1         169.178      0.000754666         68.5176
61.23                0.000657611         87.1486         0.999934         169.138                1         169.147      0.000761368         68.5692
61.24                0.000664759         87.0835         0.999936         169.107                1         169.116      0.000768064         68.6193
61.25                0.000671905         87.0192         0.999939         169.076                1         169.085      0.000774754          68.668
61.26                0.000679047         86.9556         0.999941         169.045                1         169.054      0.000781438         68.7153
61.27                0.000686187         86.8926         0.999943         169.014                1         169.023      0.000788115         68.7612
61.28                0.000693324         86.8302         0.999946         168.983                1         168.992      0.000794785         68.8059
61.29                0.000700458         86.7684         0.999948         168.952                1         168.961      0.000801449         68.8492
61.3                 0.000707589         86.7072          0.99995         168.921                1          168.93      0.000808106         68.8913
61.31                0.000714716         86.6466         0.999952          168.89                1           168.9      0.000814756         68.9321
61.32                 0.00072184         86.5866         0.999955         168.859                1         168.869        0.0008214         68.9718
61.33                0.000728961          86.527         0.999957         168.828                1         168.838      0.000828036         69.0102
61.34                0.000736079          86.468         0.999959         168.797                1         168.807      0.000834665         69.0476
61.35                0.000743192         86.4095         0.999961         168.766                1         168.776      0.000841287         69.0838
61.36                0.000750303         86.3515         0.999964         168.735                1         168.745      0.000847901         69.1189
61.37                0.000757409         86.2939         0.999966         168.704                1         168.714      0.000854509          69.153
61.38                0.000764511         86.2367         0.999968         168.673                1         168.683      0.000861108         69.1861
61.39                 0.00077161           86.18          0.99997         168.642                1         168.652        0.0008677         69.2181
61.4                 0.000778705         86.1238         0.999972         168.611                1         168.621      0.000874284         69.2491
61.41                0.000785795         86.0679         0.999975          168.58                1          168.59      0.000880861         69.2792
61.42                0.000792881         86.0124         0.999977         168.549                1         168.559       0.00088743         69.3083
61.43                0.000799963         85.9573         0.999979         168.518                1         168.529       0.00089399         69.3364
61.44                0.000807041         85.9026         0.999981         168.487                1         168.498      0.000900543         69.3637
61.45                0.000814114         85.8482         0.999983         168.456                1         168.467      0.000907087         69.3901
61.46                0.000821183         85.7941         0.999985         168.425                1         168.436      0.000913623         69.4156
61.47                0.000828246         85.7404         0.999987         168.394                1         168.405      0.000920151         69.4402
61.48                0.000835305         85.6871          0.99999         168.363                1         168.374       0.00092667          69.464
61.49                 0.00084236          85.634         0.999992         168.332                1         168.343      0.000933181          69.487
61.5                 0.000849409         85.5812         0.999994         168.301                1         168.312      0.000939683         69.5092
61.51                0.000856453         85.5288         0.999996          168.27                1         168.281      0.000946176         69.5306
61.52                0.000863492         85.4766         0.999998         168.239                1          168.25      0.000952661         69.5512
61.53                0.000870526         85.4247                1         168.208                1         168.219      0.000959137         69.5711
61.54                0.000877554          85.373                1         168.177                1         168.189      0.000965603         69.5902
61.55                0.000884577         85.3217                1         168.147                1         168.158      0.000972061         69.6086
61.56                0.000891595         85.2705                1         168.116                1         168.127       0.00097851         69.6263
61.57                0.000898607         85.2196                1         168.085                1         168.096      0.000984949         69.6433
61.58                0.000905613          85.169                1         168.054                1         168.065      0.000991379         69.6596
61.59                0.000912613         85.1186                1         168.023                1         168.034      0.000997799         69.6752
61.6                 0.000919607         85.0684                1         167.992                1         168.003       0.00100421         69.6902
61.61                0.000926596         85.0184                1         167.961                1         167.972       0.00101061         69.7045
61.62                0.000933578         84.9686                1          167.93                1         167.941         0.001017         69.7182
61.63                0.000940554          84.919                1         167.899                1          167.91       0.00102339         69.7313
61.64                0.000947523         84.8696                1         167.868                1         167.879       0.00102976         69.7437
61.65                0.000954487         84.8204                1         167.837                1         167.849       0.00103612         69.7555
61.66                0.000961443         84.7714                1         167.806                1         167.818       0.00104247         69.7668
61.67                0.000968393         84.7226                1         167.775                1         167.787       0.00104881         69.7775
61.68                0.000975337         84.6739                1         167.744                1         167.756       0.00105515         69.7875
61.69                0.000982273         84.6254                1         167.713                1         167.725       0.00106147         69.7971
61.7                 0.000989203         84.5771                1         167.682                1         167.694       0.00106778         69.8061
61.71                0.000996125         84.5289                1         167.651                1         167.663       0.00107408         69.8145
61.72                 0.00100304         84.4809                1          167.62                1         167.632       0.00108037         69.8224
61.73                 0.00100995          84.433                1         167.589                1         167.601       0.00108665         69.8298
61.74                 0.00101685         84.3853                1         167.558                1          167.57       0.00109292         69.8366
61.75                 0.00102374         84.3377                1         167.527                1          167.54       0.00109917          69.843
61.76                 0.00103063         84.2902                1         167.496                1         167.509       0.00110542         69.8488
61.77                 0.00103751         84.2429                1         167.465                1         167.478       0.00111166         69.8542
61.78                 0.00104438         84.1957                1         167.434                1         167.447       0.00111788         69.8591
61.79                 0.00105124         84.1486                1         167.403                1         167.416        0.0011241         69.8635
61.8                   0.0010581         84.1017                1         167.372                1         167.385        0.0011303         69.8674
61.81                 0.00106494         84.0548                1         167.341                1         167.354       0.00113649         69.8709
61.82                 0.00107178         84.0081                1          167.31                1         167.323       0.00114267         69.8739
61.83                 0.00107861         83.9614                1         167.279                1         167.292       0.00114884         69.8764
61.84                 0.00108543         83.9149                1         167.248                1         167.261       0.00115499         69.8785
61.85                 0.00109225         83.8685                1         167.217                1         167.231       0.00116114         69.8802
61.86                 0.00109905         83.8221                1         167.186                1           167.2       0.00116727         69.8815
61.87                 0.00110585         83.7759                1         167.155                1         167.169       0.00117339         69.8823
61.88                 0.00111263         83.7297                1         167.125                1         167.138        0.0011795         69.8828
61.89                 0.00111941         83.6836                1         167.094                1         167.107        0.0011856         69.8828
61.9                  0.00112618         83.6377                1         167.063                1         167.076       0.00119168         69.8824
61.91                 0.00113294         83.5918                1         167.032                1         167.045       0.00119776         69.8816
61.92                 0.00113969         83.5459                1         167.001                1         167.014       0.00120382         69.8804
61.93                 0.00114643         83.5002                1          166.97                1         166.983       0.00120987         69.8788
61.94                 0.00115316         83.4545                1         166.939                1         166.952        0.0012159         69.8769
61.95                 0.00115989         83.4089                1         166.908                1         166.922       0.00122193         69.8745
61.96                  0.0011666         83.3634                1         166.877                1         166.891       0.00122794         69.8718
61.97                  0.0011733         83.3179                1         166.846                1          166.86       0.00123393         69.8688