! TOUCHSTONE file generated by CST MICROWAVE STUDIO
! Date and time: Fri Mar  8 11:35:19 2024
! Project name: aire_def.cst
! Parameters = {d=9.15}
! Header version: 2018
! Port assignment regex: !\s*Touchstone port\s*([0-9]+)\s*=\s*(CST MWS port|CST DS port)\s*([0-9]+|Zmin|Zmax)\s*\(\"(.*)\"\)(\s*mode\s*([0-9]+))?.*
! Touchstone port assignment:
! Touchstone port 1 = CST MWS port 1 ("")
! Touchstone port 2 = CST MWS port 2 ("")
# GHz S MA R 376.7
60                   0.000385194        -57.6608           0.9998        -122.206                1        -122.199      0.000396177        -8.07871
60.01                0.000379455        -58.1654         0.999799        -122.226                1        -122.219      0.000390226         -7.7295
60.02                0.000373739         -58.685         0.999798        -122.247                1        -122.239      0.000384289        -7.36863
60.03                0.000368047          -59.22         0.999798        -122.267                1        -122.259      0.000378366        -6.99558
60.04                 0.00036238        -59.7713         0.999797        -122.287                1        -122.279      0.000372458        -6.60978
60.05                0.000356741        -60.3395         0.999796        -122.307                1        -122.298      0.000366567        -6.21066
60.06                 0.00035113        -60.9253         0.999795        -122.327                1        -122.318      0.000360693         -5.7976
60.07                 0.00034555        -61.5295         0.999794        -122.347                1        -122.338      0.000354837        -5.36995
60.08                0.000340002        -62.1529         0.999794        -122.368                1        -122.358      0.000349001        -4.92702
60.09                0.000334488        -62.7963         0.999793        -122.388                1        -122.378      0.000343186        -4.46809
60.1                  0.00032901        -63.4606         0.999792        -122.408                1        -122.398      0.000337393        -3.99237
60.11                0.000323571        -64.1467         0.999791        -122.428                1        -122.418      0.000331624        -3.49906
60.12                0.000318171        -64.8556         0.999791        -122.448                1        -122.438       0.00032588        -2.98729
60.13                0.000312815        -65.5883          0.99979        -122.468                1        -122.458      0.000320162        -2.45616
60.14                0.000307503        -66.3458         0.999789        -122.489                1        -122.478      0.000314472         -1.9047
60.15                 0.00030224        -67.1292         0.999788        -122.509                1        -122.498      0.000308812        -1.33189
60.16                0.000297028        -67.9397         0.999788        -122.529                1        -122.518      0.000303185       -0.736653
60.17                0.000291869        -68.7783         0.999787        -122.549                1        -122.538      0.000297591       -0.117851
60.18                0.000286768        -69.6464         0.999786        -122.569                1        -122.558      0.000292034        0.525722
60.19                0.000281727        -70.5451         0.999786        -122.589                1        -122.578      0.000286515         1.19534
60.2                  0.00027675        -71.4758         0.999785         -122.61                1        -122.598      0.000281037         1.89233
60.21                0.000271841        -72.4397         0.999784         -122.63                1        -122.618      0.000275603         2.61813
60.22                0.000267004        -73.4382         0.999783         -122.65                1        -122.638      0.000270215         3.37422
60.23                0.000262243        -74.4728         0.999783         -122.67                1        -122.658      0.000264878         4.16217
60.24                0.000257563        -75.5446         0.999782         -122.69                1        -122.678      0.000259593         4.98364
60.25                0.000252969        -76.6553         0.999781         -122.71                1        -122.698      0.000254365         5.84034
60.26                0.000248465         -77.806         0.999781        -122.731                1        -122.718      0.000249197         6.73409
60.27                0.000244057        -78.9983          0.99978        -122.751                1        -122.738      0.000244093         7.66677
60.28                0.000239751        -80.2334         0.999779        -122.771                1        -122.758      0.000239059         8.64036
60.29                0.000235552        -81.5126         0.999779        -122.791                1        -122.778      0.000234098         9.65689
60.3                 0.000231467        -82.8371         0.999778        -122.811                1        -122.798      0.000229215         10.7185
60.31                0.000227502        -84.2081         0.999777        -122.831                1        -122.818      0.000224417         11.8272
60.32                0.000223663        -85.6265         0.999777        -122.852                1        -122.838      0.000219708         12.9854
60.33                0.000219959        -87.0931         0.999776        -122.872                1        -122.858      0.000215095         14.1952
60.34                0.000216395        -88.6087         0.999776        -122.892                1        -122.878      0.000210585         15.4589
60.35                0.000212979        -90.1737         0.999775        -122.912                1        -122.898      0.000206183         16.7786
60.36                 0.00020972        -91.7882         0.999774        -122.932                1        -122.918      0.000201899         18.1566
60.37                0.000206624        -93.4521         0.999774        -122.952                1        -122.938      0.000197739          19.595
60.38                0.000203699         -95.165         0.999773        -122.973                1        -122.958      0.000193712         21.0956
60.39                0.000200953        -96.9262         0.999772        -122.993                1        -122.978      0.000189827         22.6602
60.4                 0.000198394        -98.7344         0.999772        -123.013                1        -122.998      0.000186092         24.2904
60.41                0.000196029        -100.588         0.999771        -123.033                1        -123.018      0.000182518         25.9873
60.42                0.000193867        -102.485         0.999771        -123.053                1        -123.038      0.000179114         27.7518
60.43                0.000191913        -104.423          0.99977        -123.073                1        -123.058       0.00017589         29.5843
60.44                0.000190175        -106.398          0.99977        -123.094                1        -123.078      0.000172857         31.4845
60.45                0.000188659        -108.408         0.999769        -123.114                1        -123.098      0.000170024         33.4516
60.46                 0.00018737        -110.448         0.999768        -123.134                1        -123.118      0.000167403         35.4842
60.47                0.000186315        -112.514         0.999768        -123.154                1        -123.138      0.000165004         37.5799
60.48                0.000185496        -114.602         0.999767        -123.174                1        -123.158      0.000162837         39.7356
60.49                0.000184917        -116.706         0.999767        -123.194                1        -123.178      0.000160911         41.9473
60.5                 0.000184581        -118.821         0.999766        -123.215                1        -123.198      0.000159235         44.2102
60.51                0.000184489        -120.941         0.999766        -123.235                1        -123.218      0.000157818         46.5184
60.52                0.000184643        -123.062         0.999765        -123.255                1        -123.238      0.000156666         48.8654
60.53                0.000185041        -125.177         0.999765        -123.275                1        -123.258      0.000155787         51.2439
60.54                0.000185682        -127.281         0.999764        -123.295                1        -123.278      0.000155184         53.6458
60.55                0.000186564        -129.369         0.999764        -123.315                1        -123.298      0.000154861         56.0627
60.56                0.000187684        -131.435         0.999763        -123.336                1        -123.318      0.000154821         58.4858
60.57                0.000189038        -133.476         0.999763        -123.356                1        -123.338      0.000155063         60.9062
60.58                0.000190621        -135.486         0.999762        -123.376                1        -123.358      0.000155586          63.315
60.59                0.000192427        -137.462         0.999762        -123.396                1        -123.378      0.000156388         65.7036
60.6                  0.00019445          -139.4         0.999761        -123.416                1        -123.398      0.000157464         68.0637
60.61                0.000196684        -141.297         0.999761        -123.436                1        -123.418      0.000158809         70.3878
60.62                0.000199123        -143.152          0.99976        -123.457                1        -123.438      0.000160417          72.669
60.63                0.000201757        -144.961          0.99976        -123.477                1        -123.458      0.000162279         74.9012
60.64                0.000204581        -146.722         0.999759        -123.497                1        -123.478      0.000164388         77.0791
60.65                0.000207587        -148.436         0.999759        -123.517                1        -123.498      0.000166734         79.1983
60.66                0.000210767        -150.101         0.999758        -123.537                1        -123.518      0.000169307         81.2555
60.67                0.000214112        -151.717         0.999758        -123.557                1        -123.538      0.000172096          83.248
60.68                0.000217617        -153.283         0.999757        -123.578                1        -123.558      0.000175093          85.174
60.69                0.000221273        -154.799         0.999757        -123.598                1        -123.578      0.000178286         87.0324
60.7                 0.000225072        -156.267         0.999756        -123.618                1        -123.598      0.000181665         88.8228
60.71                0.000229009        -157.687         0.999756        -123.638                1        -123.618       0.00018522         90.5453
60.72                0.000233075        -159.059         0.999756        -123.658                1        -123.638      0.000188941         92.2005
60.73                0.000237265        -160.386         0.999755        -123.678                1        -123.658      0.000192819         93.7897
60.74                0.000241571        -161.666         0.999755        -123.699                1        -123.678      0.000196844          95.314
60.75                0.000245989        -162.903         0.999754        -123.719                1        -123.698      0.000201007         96.7753
60.76                0.000250512        -164.097         0.999754        -123.739                1        -123.718        0.0002053         98.1754
60.77                0.000255133         -165.25         0.999754        -123.759                1        -123.738      0.000209715         99.5163
60.78                 0.00025985        -166.363         0.999753        -123.779                1        -123.759      0.000214244           100.8
60.79                0.000264655        -167.437         0.999753        -123.799                1        -123.779      0.000218881         102.029
60.8                 0.000269544        -168.473         0.999752         -123.82                1        -123.799      0.000223619         103.206
60.81                0.000274514        -169.474         0.999752         -123.84                1        -123.819       0.00022845         104.332
60.82                0.000279559        -170.441         0.999752         -123.86                1        -123.839       0.00023337         105.409
60.83                0.000284675        -171.374         0.999751         -123.88                1        -123.859      0.000238373         106.441
60.84                0.000289859        -172.275         0.999751          -123.9                1        -123.879      0.000243454         107.429
60.85                0.000295107        -173.146         0.999751        -123.921                1        -123.899      0.000248608         108.375
60.86                0.000300416        -173.987          0.99975        -123.941                1        -123.919       0.00025383         109.282
60.87                0.000305782        -174.801          0.99975        -123.961                1        -123.939      0.000259116          110.15
60.88                0.000311203        -175.587          0.99975        -123.981                1        -123.959      0.000264463         110.983
60.89                0.000316676        -176.348         0.999749        -124.001                1        -123.979      0.000269866         111.781
60.9                 0.000322197        -177.084         0.999749        -124.021                1        -123.999      0.000275322         112.547
60.91                0.000327765        -177.796         0.999749        -124.042                1        -124.019      0.000280829         113.281
60.92                0.000333376        -178.485         0.999748        -124.062                1        -124.039      0.000286382         113.986
60.93                 0.00033903        -179.153         0.999748        -124.082                1        -124.059       0.00029198         114.664
60.94                0.000344723          -179.8         0.999748        -124.102                1        -124.079      0.000297619         115.314
60.95                0.000350453         179.573         0.999748        -124.122                1        -124.099      0.000303298         115.939
60.96                0.000356219         178.965         0.999747        -124.142                1        -124.119      0.000309014          116.54
60.97                0.000362019         178.376         0.999747        -124.163                1        -124.139      0.000314764         117.118
60.98                0.000367852         177.803         0.999747        -124.183                1        -124.159      0.000320548         117.674
60.99                0.000373714         177.248         0.999746        -124.203                1        -124.179      0.000326362          118.21
61                   0.000379606         176.709         0.999746        -124.223                1        -124.199      0.000332206         118.725
61.01                0.000385526         176.185         0.999746        -124.243                1        -124.219      0.000338077         119.222
61.02                0.000391471         175.676         0.999746        -124.264                1        -124.239      0.000343974           119.7
61.03                0.000397442         175.182         0.999745        -124.284                1        -124.259      0.000349896         120.162
61.04                0.000403436         174.701         0.999745        -124.304                1        -124.279      0.000355841         120.607
61.05                0.000409453         174.233         0.999745        -124.324                1        -124.299      0.000361809         121.036
61.06                0.000415492         173.777         0.999745        -124.344                1        -124.319      0.000367797         121.451
61.07                 0.00042155         173.334         0.999745        -124.364                1        -124.339      0.000373805         121.851
61.08                0.000427629         172.902         0.999744        -124.385                1        -124.359      0.000379831         122.237
61.09                0.000433725         172.482         0.999744        -124.405                1        -124.379      0.000385875         122.611
61.1                 0.000439839         172.072         0.999744        -124.425                1        -124.399      0.000391935         122.972
61.11                 0.00044597         171.673         0.999744        -124.445                1        -124.419      0.000398011          123.32
61.12                0.000452117         171.283         0.999744        -124.465                1        -124.439      0.000404102         123.658
61.13                0.000458278         170.903         0.999743        -124.485                1        -124.459      0.000410207         123.985
61.14                0.000464454         170.532         0.999743        -124.506                1        -124.479      0.000416326         124.301
61.15                0.000470644          170.17         0.999743        -124.526                1        -124.499      0.000422457         124.607
61.16                0.000476846         169.817         0.999743        -124.546                1        -124.519      0.000428599         124.903
61.17                0.000483061         169.472         0.999743        -124.566                1         -124.54      0.000434753          125.19
61.18                0.000489288         169.134         0.999743        -124.586                1         -124.56      0.000440917         125.468
61.19                0.000495525         168.805         0.999742        -124.607                1         -124.58      0.000447092         125.738
61.2                 0.000501773         168.482         0.999742        -124.627                1          -124.6      0.000453275         125.999
61.21                0.000508031         168.167         0.999742        -124.647                1         -124.62      0.000459468         126.252
61.22                0.000514298         167.859         0.999742        -124.667                1         -124.64      0.000465668         126.498
61.23                0.000520574         167.557         0.999742        -124.687                1         -124.66      0.000471877         126.737
61.24                0.000526858         167.261         0.999742        -124.707                1         -124.68      0.000478092         126.968
61.25                 0.00053315         166.972         0.999742        -124.728                1          -124.7      0.000484315         127.193
61.26                 0.00053945         166.689         0.999742        -124.748                1         -124.72      0.000490544         127.411
61.27                0.000545756         166.412         0.999741        -124.768                1         -124.74      0.000496779         127.623
61.28                0.000552069          166.14         0.999741        -124.788                1         -124.76      0.000503019         127.829
61.29                0.000558388         165.873         0.999741        -124.808                1         -124.78      0.000509265         128.029
61.3                 0.000564713         165.612         0.999741        -124.828                1          -124.8      0.000515515         128.223
61.31                0.000571044         165.356         0.999741        -124.849                1         -124.82       0.00052177         128.412
61.32                0.000577379         165.104         0.999741        -124.869                1         -124.84      0.000528029         128.596
61.33                0.000583719         164.857         0.999741        -124.889                1         -124.86      0.000534292         128.774
61.34                0.000590063         164.615         0.999741        -124.909                1         -124.88      0.000540558         128.948
61.35                0.000596412         164.378         0.999741        -124.929                1          -124.9      0.000546827         129.117
61.36                0.000602763         164.144         0.999741         -124.95                1         -124.92      0.000553099         129.281
61.37                0.000609119         163.915         0.999741         -124.97                1         -124.94      0.000559374         129.441
61.38                0.000615477          163.69         0.999741         -124.99                1         -124.96      0.000565651         129.596
61.39                0.000621837         163.469         0.999741         -125.01                1         -124.98       0.00057193         129.748
61.4                 0.000628201         163.252         0.999741         -125.03                1            -125       0.00057821         129.895
61.41                0.000634566         163.038         0.999741         -125.05                1         -125.02      0.000584492         130.038
61.42                0.000640933         162.828         0.999741        -125.071                1         -125.04      0.000590775         130.178
61.43                0.000647302         162.621         0.999741        -125.091                1        -125.061      0.000597059         130.314
61.44                0.000653672         162.418         0.999741        -125.111                1        -125.081      0.000603344         130.447
61.45                0.000660043         162.218         0.999741        -125.131                1        -125.101      0.000609629         130.576
61.46                0.000666415         162.021         0.999741        -125.151                1        -125.121      0.000615914         130.701
61.47                0.000672787         161.827         0.999741        -125.171                1        -125.141      0.000622199         130.824
61.48                 0.00067916         161.637         0.999741        -125.192                1        -125.161      0.000628485         130.943
61.49                0.000685533         161.449         0.999741        -125.212                1        -125.181      0.000634769         131.059
61.5                 0.000691906         161.264         0.999741        -125.232                1        -125.201      0.000641054         131.173
61.51                0.000698278         161.082         0.999741        -125.252                1        -125.221      0.000647337         131.283
61.52                 0.00070465         160.902         0.999741        -125.272                1        -125.241      0.000653619         131.391
61.53                0.000711021         160.725         0.999741        -125.293                1        -125.261        0.0006599         131.496
61.54                0.000717391         160.551         0.999741        -125.313                1        -125.281       0.00066618         131.598
61.55                0.000723759         160.379         0.999741        -125.333                1        -125.301      0.000672458         131.698
61.56                0.000730126          160.21         0.999741        -125.353                1        -125.321      0.000678734         131.795
61.57                0.000736492         160.043         0.999741        -125.373                1        -125.341      0.000685009          131.89
61.58                0.000742856         159.878         0.999741        -125.393                1        -125.361      0.000691281         131.983
61.59                0.000749217         159.716         0.999741        -125.414                1        -125.381      0.000697551         132.073
61.6                 0.000755577         159.555         0.999742        -125.434                1        -125.401      0.000703819         132.161
61.61                0.000761934         159.397         0.999742        -125.454                1        -125.421      0.000710083         132.247
61.62                0.000768288         159.241         0.999742        -125.474                1        -125.441      0.000716346          132.33
61.63                 0.00077464         159.087         0.999742        -125.494                1        -125.461      0.000722605         132.412
61.64                0.000780989         158.935         0.999742        -125.514                1        -125.482      0.000728861         132.491
61.65                0.000787334         158.784         0.999742        -125.535                1        -125.502      0.000735113         132.569
61.66                0.000793677         158.636         0.999742        -125.555                1        -125.522      0.000741363         132.645
61.67                0.000800015          158.49         0.999742        -125.575                1        -125.542      0.000747609         132.718
61.68                0.000806351         158.345         0.999743        -125.595                1        -125.562      0.000753851          132.79
61.69                0.000812682         158.202         0.999743        -125.615                1        -125.582      0.000760089         132.861
61.7                 0.000819009         158.061         0.999743        -125.636                1        -125.602      0.000766323         132.929
61.71                0.000825332         157.921         0.999743        -125.656                1        -125.622      0.000772553         132.996
61.72                0.000831651         157.783         0.999743        -125.676                1        -125.642      0.000778778         133.061
61.73                0.000837965         157.647         0.999743        -125.696                1        -125.662         0.000785         133.125
61.74                0.000844275         157.512         0.999744        -125.716                1        -125.682      0.000791216         133.187
61.75                 0.00085058         157.378         0.999744        -125.736                1        -125.702      0.000797428         133.247
61.76                 0.00085688         157.247         0.999744        -125.757                1        -125.722      0.000803635         133.306
61.77                0.000863174         157.116         0.999744        -125.777                1        -125.742      0.000809837         133.364
61.78                0.000869464         156.987         0.999744        -125.797                1        -125.762      0.000816034          133.42
61.79                0.000875748          156.86         0.999745        -125.817                1        -125.782      0.000822225         133.475
61.8                 0.000882026         156.733         0.999745        -125.837                1        -125.802      0.000828412         133.528
61.81                0.000888299         156.608         0.999745        -125.857                1        -125.822      0.000834592          133.58
61.82                0.000894566         156.485         0.999745        -125.878                1        -125.843      0.000840767          133.63
61.83                0.000900826         156.362         0.999746        -125.898                1        -125.863      0.000846936          133.68
61.84                0.000907081         156.241         0.999746        -125.918                1        -125.883      0.000853099         133.728
61.85                0.000913329         156.121         0.999746        -125.938                1        -125.903      0.000859256         133.775
61.86                0.000919571         156.003         0.999746        -125.958                1        -125.923      0.000865407         133.821
61.87                0.000925806         155.885         0.999747        -125.979                1        -125.943      0.000871552         133.865
61.88                0.000932034         155.769         0.999747        -125.999                1        -125.963       0.00087769         133.909
61.89                0.000938256         155.654         0.999747        -126.019                1        -125.983      0.000883821         133.951
61.9                  0.00094447         155.539         0.999748        -126.039                1        -126.003      0.000889946         133.992
61.91                0.000950677         155.426         0.999748        -126.059                1        -126.023      0.000896064         134.032
61.92                0.000956877         155.314         0.999748        -126.079                1        -126.043      0.000902175         134.072
61.93                0.000963069         155.203         0.999748          -126.1                1        -126.063      0.000908279          134.11
61.94                0.000969254         155.093         0.999749         -126.12                1        -126.083      0.000914376         134.147
61.95                0.000975431         154.984         0.999749         -126.14                1        -126.103      0.000920465         134.183
61.96                  0.0009816         154.876         0.999749         -126.16                1        -126.123      0.000926547         134.218
61.97                0.000987761         154.769          0.99975         -126.18                1        -126.143      0.000932622         134.252