! TOUCHSTONE file generated by CST MICROWAVE STUDIO
! Date and time: Sun Mar  3 12:20:14 2024
! Project name: aire_def.cst
! Parameters = {d=8.8}
! Header version: 2018
! Port assignment regex: !\s*Touchstone port\s*([0-9]+)\s*=\s*(CST MWS port|CST DS port)\s*([0-9]+|Zmin|Zmax)\s*\(\"(.*)\"\)(\s*mode\s*([0-9]+))?.*
! Touchstone port assignment:
! Touchstone port 1 = CST MWS port 1 ("")
! Touchstone port 2 = CST MWS port 2 ("")
# GHz S MA R 376.7
60                   0.000443054        -115.392         0.999466        -172.641                1        -172.624       0.00038269        -34.7943
60.01                0.000437523        -115.986         0.999469        -172.669                1        -172.652      0.000378536        -34.0458
60.02                0.000432033        -116.594         0.999473        -172.698                1         -172.68      0.000374449        -33.2802
60.03                0.000426587        -117.218         0.999476        -172.726                1        -172.709      0.000370432        -32.4972
60.04                0.000421185        -117.858         0.999479        -172.755                1        -172.737      0.000366487        -31.6965
60.05                0.000415831        -118.513         0.999482        -172.784                1        -172.765      0.000362618        -30.8779
60.06                0.000410525        -119.186         0.999486        -172.812                1        -172.794      0.000358825        -30.0411
60.07                0.000405271        -119.876         0.999489        -172.841                1        -172.822      0.000355113        -29.1861
60.08                 0.00040007        -120.583         0.999492        -172.869                1        -172.851      0.000351484        -28.3125
60.09                0.000394925        -121.309         0.999495        -172.898                1        -172.879       0.00034794        -27.4203
60.1                 0.000389838        -122.054         0.999498        -172.927                1        -172.907      0.000344485        -26.5093
60.11                0.000384812        -122.818         0.999501        -172.955                1        -172.936      0.000341121        -25.5794
60.12                0.000379849        -123.602         0.999505        -172.984                1        -172.964       0.00033785        -24.6306
60.13                0.000374952        -124.406         0.999508        -173.012                1        -172.993      0.000334677         -23.663
60.14                0.000370124        -125.231         0.999511        -173.041                1        -173.021      0.000331604        -22.6765
60.15                0.000365368        -126.077         0.999514         -173.07                1        -173.049      0.000328634        -21.6712
60.16                0.000360686        -126.946         0.999517        -173.098                1        -173.078      0.000325769        -20.6473
60.17                0.000356083        -127.836          0.99952        -173.127                1        -173.106      0.000323013         -19.605
60.18                0.000351561         -128.75         0.999523        -173.155                1        -173.135      0.000320369        -18.5445
60.19                0.000347124        -129.687         0.999526        -173.184                1        -173.163       0.00031784        -17.4662
60.2                 0.000342775        -130.648         0.999529        -173.213                1        -173.191      0.000315428        -16.3704
60.21                0.000338517        -131.633         0.999532        -173.241                1         -173.22      0.000313136        -15.2576
60.22                0.000334356        -132.642         0.999535         -173.27                1        -173.248      0.000310968        -14.1282
60.23                0.000330293        -133.677         0.999538        -173.298                1        -173.277      0.000308926         -12.983
60.24                0.000326334        -134.736         0.999542        -173.327                1        -173.305      0.000307012        -11.8225
60.25                0.000322482        -135.822         0.999545        -173.356                1        -173.333       0.00030523        -10.6474
60.26                0.000318742        -136.933         0.999547        -173.384                1        -173.362      0.000303581        -9.45856
60.27                0.000315117        -138.069          0.99955        -173.413                1         -173.39      0.000302068        -8.25681
60.28                0.000311612        -139.232         0.999553        -173.441                1        -173.419      0.000300693        -7.04308
60.29                 0.00030823        -140.421         0.999556         -173.47                1        -173.447      0.000299458        -5.81835
60.3                 0.000304978        -141.635         0.999559        -173.499                1        -173.475      0.000298365        -4.58366
60.31                0.000301858        -142.875         0.999562        -173.527                1        -173.504      0.000297415        -3.34012
60.32                0.000298875         -144.14         0.999565        -173.556                1        -173.532      0.000296611        -2.08887
60.33                0.000296033        -145.429         0.999568        -173.584                1        -173.561      0.000295953       -0.831109
60.34                0.000293338        -146.744         0.999571        -173.613                1        -173.589      0.000295442        0.431928
60.35                0.000290792        -148.081         0.999574        -173.642                1        -173.618       0.00029508         1.69898
60.36                  0.0002884        -149.442         0.999577         -173.67                1        -173.646      0.000294867         2.96875
60.37                0.000286166        -150.825          0.99958        -173.699                1        -173.674      0.000294803         4.23993
60.38                0.000284095        -152.229         0.999583        -173.727                1        -173.703      0.000294889         5.51122
60.39                0.000282189        -153.652         0.999585        -173.756                1        -173.731      0.000295124         6.78129
60.4                 0.000280452        -155.095         0.999588        -173.785                1         -173.76      0.000295508         8.04883
60.41                0.000278888        -156.554         0.999591        -173.813                1        -173.788      0.000296042         9.31255
60.42                  0.0002775        -158.029         0.999594        -173.842                1        -173.817      0.000296723         10.5712
60.43                0.000276291        -159.518         0.999597        -173.871                1        -173.845      0.000297551         11.8235
60.44                0.000275262         -161.02         0.999599        -173.899                1        -173.873      0.000298525         13.0682
60.45                0.000274417        -162.532         0.999602        -173.928                1        -173.902      0.000299644         14.3043
60.46                0.000273756        -164.052         0.999605        -173.956                1         -173.93      0.000300906         15.5306
60.47                0.000273282        -165.579         0.999608        -173.985                1        -173.959      0.000302308         16.7459
60.48                0.000272996        -167.111         0.999611        -174.014                1        -173.987      0.000303851         17.9494
60.49                0.000272898        -168.645         0.999613        -174.042                1        -174.016       0.00030553         19.1401
60.5                 0.000272989         -170.18         0.999616        -174.071                1        -174.044      0.000307344         20.3172
60.51                0.000273268        -171.713         0.999619        -174.099                1        -174.072      0.000309292         21.4797
60.52                0.000273735        -173.242         0.999621        -174.128                1        -174.101      0.000311369          22.627
60.53                 0.00027439        -174.765         0.999624        -174.157                1        -174.129      0.000313574         23.7584
60.54                 0.00027523        -176.281         0.999627        -174.185                1        -174.158      0.000315904         24.8734
60.55                0.000276255        -177.787         0.999629        -174.214                1        -174.186      0.000318357         25.9713
60.56                0.000277463        -179.281         0.999632        -174.242                1        -174.215      0.000320929         27.0517
60.57                 0.00027885         179.238         0.999635        -174.271                1        -174.243      0.000323617         28.1143
60.58                0.000280415         177.773         0.999637          -174.3                1        -174.272      0.000326419         29.1587
60.59                0.000282154         176.323          0.99964        -174.328                1          -174.3      0.000329333         30.1845
60.6                 0.000284065         174.892         0.999643        -174.357                1        -174.329      0.000332354         31.1917
60.61                0.000286144          173.48         0.999645        -174.385                1        -174.357       0.00033548         32.1801
60.62                0.000288388         172.089         0.999648        -174.414                1        -174.385      0.000338708         33.1495
60.63                0.000290792         170.719          0.99965        -174.443                1        -174.414      0.000342036         34.0999
60.64                0.000293353         169.372         0.999653        -174.471                1        -174.442       0.00034546         35.0312
60.65                0.000296066         168.048         0.999656          -174.5                1        -174.471      0.000348977         35.9436
60.66                0.000298929         166.748         0.999658        -174.528                1        -174.499      0.000352585         36.8371
60.67                0.000301935         165.473         0.999661        -174.557                1        -174.528      0.000356281         37.7118
60.68                0.000305082         164.222         0.999663        -174.586                1        -174.556      0.000360062         38.5678
60.69                0.000308364         162.997         0.999666        -174.614                1        -174.585      0.000363925         39.4053
60.7                 0.000311778         161.798         0.999668        -174.643                1        -174.613      0.000367868         40.2246
60.71                0.000315319         160.624         0.999671        -174.671                1        -174.642      0.000371889         41.0257
60.72                0.000318984         159.476         0.999673          -174.7                1         -174.67      0.000375984         41.8091
60.73                0.000322767         158.354         0.999676        -174.728                1        -174.698      0.000380151         42.5748
60.74                0.000326664         157.257         0.999678        -174.757                1        -174.727      0.000384388         43.3233
60.75                0.000330672         156.186         0.999681        -174.786                1        -174.755      0.000388693         44.0547
60.76                0.000334787          155.14         0.999683        -174.814                1        -174.784      0.000393063         44.7694
60.77                0.000339004         154.119         0.999686        -174.843                1        -174.812      0.000397495         45.4677
60.78                 0.00034332         153.122         0.999688        -174.871                1        -174.841      0.000401989         46.1499
60.79                0.000347731          152.15         0.999691          -174.9                1        -174.869      0.000406541         46.8164
60.8                 0.000352233         151.202         0.999693        -174.929                1        -174.898      0.000411151         47.4673
60.81                0.000356823         150.277         0.999695        -174.957                1        -174.926      0.000415814         48.1032
60.82                0.000361498         149.374         0.999698        -174.986                1        -174.955      0.000420531         48.7243
60.83                0.000366254         148.495           0.9997        -175.014                1        -174.983      0.000425299         49.3309
60.84                0.000371087         147.637         0.999702        -175.043                1        -175.012      0.000430116         49.9233
60.85                0.000375996         146.801         0.999705        -175.072                1         -175.04      0.000434981          50.502
60.86                0.000380976         145.985         0.999707          -175.1                1        -175.069      0.000439891         51.0671
60.87                0.000386026          145.19          0.99971        -175.129                1        -175.097      0.000444846         51.6191
60.88                0.000391141         144.415         0.999712        -175.157                1        -175.126      0.000449843         52.1583
60.89                 0.00039632          143.66         0.999714        -175.186                1        -175.154      0.000454882         52.6849
60.9                 0.000401561         142.923         0.999716        -175.215                1        -175.183       0.00045996         53.1993
60.91                0.000406859         142.204         0.999719        -175.243                1        -175.211      0.000465077         53.7018
60.92                0.000412214         141.504         0.999721        -175.272                1         -175.24      0.000470231         54.1927
60.93                0.000417623          140.82         0.999723          -175.3                1        -175.268       0.00047542         54.6722
60.94                0.000423083         140.154         0.999726        -175.329                1        -175.297      0.000480644         55.1408
60.95                0.000428593         139.503         0.999728        -175.358                1        -175.325      0.000485901         55.5986
60.96                0.000434151         138.869          0.99973        -175.386                1        -175.354       0.00049119         56.0459
60.97                0.000439754          138.25         0.999732        -175.415                1        -175.382       0.00049651          56.483
60.98                0.000445401         137.646         0.999735        -175.443                1        -175.411       0.00050186         56.9101
60.99                 0.00045109         137.056         0.999737        -175.472                1        -175.439      0.000507238         57.3276
61                    0.00045682          136.48         0.999739        -175.501                1        -175.467      0.000512644         57.7357
61.01                0.000462588         135.918         0.999741        -175.529                1        -175.496      0.000518077         58.1346
61.02                0.000468393         135.369         0.999743        -175.558                1        -175.524      0.000523536         58.5245
61.03                0.000474234         134.833         0.999746        -175.586                1        -175.553      0.000529019         58.9058
61.04                0.000480109         134.309         0.999748        -175.615                1        -175.581      0.000534527         59.2785
61.05                0.000486016         133.797          0.99975        -175.644                1         -175.61      0.000540057          59.643
61.06                0.000491955         133.297         0.999752        -175.672                1        -175.638       0.00054561         59.9994
61.07                0.000497925         132.808         0.999754        -175.701                1        -175.667      0.000551184         60.3481
61.08                0.000503923          132.33         0.999756        -175.729                1        -175.695      0.000556779          60.689
61.09                0.000509948         131.863         0.999758        -175.758                1        -175.724      0.000562393         61.0226
61.1                 0.000516001         131.406         0.999761        -175.786                1        -175.753      0.000568027         61.3489
61.11                0.000522079         130.959         0.999763        -175.815                1        -175.781       0.00057368         61.6681
61.12                0.000528181         130.521         0.999765        -175.844                1         -175.81       0.00057935         61.9805
61.13                0.000534306         130.093         0.999767        -175.872                1        -175.838      0.000585037         62.2862
61.14                0.000540455         129.674         0.999769        -175.901                1        -175.867      0.000590741         62.5854
61.15                0.000546624         129.264         0.999771        -175.929                1        -175.895      0.000596461         62.8782
61.16                0.000552814         128.862         0.999773        -175.958                1        -175.924      0.000602196         63.1648
61.17                0.000559024         128.469         0.999775        -175.987                1        -175.952      0.000607945         63.4453
61.18                0.000565253         128.083         0.999777        -176.015                1        -175.981      0.000613709           63.72
61.19                  0.0005715         127.705         0.999779        -176.044                1        -176.009      0.000619486         63.9889
61.2                 0.000577764         127.335         0.999781        -176.072                1        -176.038      0.000625276         64.2523
61.21                0.000584045         126.972         0.999783        -176.101                1        -176.066      0.000631079         64.5101
61.22                0.000590341         126.617         0.999785         -176.13                1        -176.095      0.000636894         64.7627
61.23                0.000596653         126.268         0.999787        -176.158                1        -176.123      0.000642721         65.0101
61.24                0.000602979         125.926         0.999789        -176.187                1        -176.152      0.000648558         65.2524
61.25                0.000609319          125.59         0.999791        -176.215                1         -176.18      0.000654406         65.4897
61.26                0.000615673         125.261         0.999793        -176.244                1        -176.209      0.000660264         65.7223
61.27                0.000622038         124.938         0.999795        -176.272                1        -176.237      0.000666132         65.9501
61.28                0.000628416         124.621         0.999797        -176.301                1        -176.266       0.00067201         66.1734
61.29                0.000634805          124.31         0.999799         -176.33                1        -176.294      0.000677896         66.3922
61.3                 0.000641205         124.004         0.999801        -176.358                1        -176.323       0.00068379         66.6066
61.31                0.000647615         123.704         0.999803        -176.387                1        -176.351      0.000689693         66.8167
61.32                0.000654036         123.409         0.999805        -176.415                1         -176.38      0.000695603         67.0227
61.33                0.000660465         123.119         0.999807        -176.444                1        -176.408      0.000701521         67.2246
61.34                0.000666903         122.834         0.999808        -176.473                1        -176.437      0.000707446         67.4225
61.35                 0.00067335         122.554          0.99981        -176.501                1        -176.465      0.000713377         67.6165
61.36                0.000679804         122.279         0.999812         -176.53                1        -176.494      0.000719315         67.8068
61.37                0.000686266         122.009         0.999814        -176.558                1        -176.523      0.000725259         67.9933
61.38                0.000692735         121.743         0.999816        -176.587                1        -176.551      0.000731208         68.1762
61.39                 0.00069921         121.481         0.999818        -176.615                1         -176.58      0.000737163         68.3556
61.4                 0.000705692         121.224          0.99982        -176.644                1        -176.608      0.000743122         68.5315
61.41                0.000712179         120.971         0.999821        -176.673                1        -176.637      0.000749087         68.7041
61.42                0.000718672         120.722         0.999823        -176.701                1        -176.665      0.000755056         68.8733
61.43                 0.00072517         120.477         0.999825         -176.73                1        -176.694      0.000761028         69.0393
61.44                0.000731672         120.235         0.999827        -176.758                1        -176.722      0.000767005         69.2022
61.45                0.000738179         119.998         0.999829        -176.787                1        -176.751      0.000772985         69.3619
61.46                0.000744689         119.764          0.99983        -176.816                1        -176.779      0.000778969         69.5186
61.47                0.000751203         119.533         0.999832        -176.844                1        -176.808      0.000784956         69.6724
61.48                0.000757721         119.306         0.999834        -176.873                1        -176.836      0.000790945         69.8233
61.49                0.000764241         119.083         0.999836        -176.901                1        -176.865      0.000796937         69.9713
61.5                 0.000770764         118.862         0.999837         -176.93                1        -176.893      0.000802931         70.1166
61.51                0.000777289         118.645         0.999839        -176.958                1        -176.922      0.000808927         70.2591
61.52                0.000783816         118.431         0.999841        -176.987                1        -176.951      0.000814924          70.399
61.53                0.000790345          118.22         0.999842        -177.016                1        -176.979      0.000820924         70.5363
61.54                0.000796875         118.012         0.999844        -177.044                1        -177.008      0.000826924         70.6711
61.55                0.000803406         117.807         0.999846        -177.073                1        -177.036      0.000832926         70.8033
61.56                0.000809938         117.605         0.999847        -177.101                1        -177.065      0.000838929         70.9331
61.57                0.000816471         117.405         0.999849         -177.13                1        -177.093      0.000844932         71.0605
61.58                0.000823004         117.209         0.999851        -177.158                1        -177.122      0.000850935         71.1856
61.59                0.000829537         117.014         0.999852        -177.187                1         -177.15      0.000856939         71.3084
61.6                  0.00083607         116.823         0.999854        -177.216                1        -177.179      0.000862942         71.4289
61.61                0.000842602         116.634         0.999856        -177.244                1        -177.207      0.000868946         71.5472
61.62                0.000849133         116.447         0.999857        -177.273                1        -177.236      0.000874949         71.6633
61.63                0.000855664         116.263         0.999859        -177.301                1        -177.265      0.000880951         71.7774
61.64                0.000862193         116.081         0.999861         -177.33                1        -177.293      0.000886953         71.8893
61.65                0.000868721         115.901         0.999862        -177.358                1        -177.322      0.000892953         71.9992
61.66                0.000875247         115.724         0.999864        -177.387                1         -177.35      0.000898952         72.1071
61.67                0.000881771         115.549         0.999865        -177.416                1        -177.379       0.00090495         72.2131
61.68                0.000888293         115.376         0.999867        -177.444                1        -177.407      0.000910946         72.3171
61.69                0.000894812         115.205         0.999869        -177.473                1        -177.436      0.000916941         72.4192
61.7                 0.000901329         115.036          0.99987        -177.501                1        -177.464      0.000922933         72.5195
61.71                0.000907843         114.869         0.999872         -177.53                1        -177.493      0.000928923          72.618
61.72                0.000914354         114.704         0.999873        -177.558                1        -177.522      0.000934911         72.7146
61.73                0.000920862          114.54         0.999875        -177.587                1         -177.55      0.000940897         72.8096
61.74                0.000927366         114.379         0.999876        -177.616                1        -177.579       0.00094688         72.9028
61.75                0.000933867          114.22         0.999878        -177.644                1        -177.607       0.00095286         72.9943
61.76                0.000940364         114.062         0.999879        -177.673                1        -177.636      0.000958837         73.0842
61.77                0.000946857         113.906         0.999881        -177.701                1        -177.664       0.00096481         73.1724
61.78                0.000953345         113.752         0.999882         -177.73                1        -177.693      0.000970781         73.2591
61.79                0.000959829         113.599         0.999884        -177.758                1        -177.722      0.000976748         73.3441
61.8                 0.000966309         113.448         0.999885        -177.787                1         -177.75      0.000982711         73.4277
61.81                0.000972783         113.299         0.999887        -177.816                1        -177.779       0.00098867         73.5097
61.82                0.000979253         113.151         0.999888        -177.844                1        -177.807      0.000994626         73.5902
61.83                0.000985717         113.005          0.99989        -177.873                1        -177.836       0.00100058         73.6693
61.84                0.000992176         112.861         0.999891        -177.901                1        -177.864       0.00100652          73.747
61.85                0.000998629         112.717         0.999892         -177.93                1        -177.893       0.00101247         73.8232
61.86                 0.00100508         112.576         0.999894        -177.958                1        -177.922        0.0010184          73.898
61.87                 0.00101152         112.435         0.999895        -177.987                1         -177.95       0.00102434         73.9715
61.88                 0.00101795         112.296         0.999897        -178.016                1        -177.979       0.00103027         74.0437
61.89                 0.00102438         112.159         0.999898        -178.044                1        -178.007       0.00103619         74.1145
61.9                  0.00103081         112.022         0.999899        -178.073                1        -178.036       0.00104211          74.184
61.91                 0.00103722         111.887         0.999901        -178.101                1        -178.064       0.00104802         74.2523
61.92                 0.00104363         111.754         0.999902         -178.13                1        -178.093       0.00105393         74.3193
61.93                 0.00105003         111.621         0.999904        -178.158                1        -178.122       0.00105983          74.385
61.94                 0.00105643          111.49         0.999905        -178.187                1         -178.15       0.00106572         74.4496
61.95                 0.00106282          111.36         0.999906        -178.215                1        -178.179       0.00107161          74.513
61.96                  0.0010692         111.231         0.999908        -178.244                1        -178.207        0.0010775         74.5752
61.97                 0.00107557         111.104         0.999909        -178.273                1        -178.236       0.00108338         74.6362