! TOUCHSTONE file generated by CST MICROWAVE STUDIO
! Date and time: Mon Feb 26 23:48:05 2024
! Project name: aire_des.cst
! Header version: 2018
! Port assignment regex: !\s*Touchstone port\s*([0-9]+)\s*=\s*(CST MWS port|CST DS port)\s*([0-9]+|Zmin|Zmax)\s*\(\"(.*)\"\)(\s*mode\s*([0-9]+))?.*
! Touchstone port assignment:
! Touchstone port 1 = CST MWS port 1 ("")
! Touchstone port 2 = CST MWS port 2 ("")
# GHz S MA R 376.7
60                    0.00463962        -52.9458          1.00004         -144.12         0.999566         -144.11       0.00467921        -53.8569
60.01                 0.00461263        -52.7173          1.00004        -144.145         0.999563        -144.134       0.00465604        -53.3877
60.02                 0.00458588        -52.4869          1.00004        -144.171          0.99956        -144.159       0.00463297        -52.9144
60.03                 0.00455938        -52.2545          1.00004        -144.197         0.999558        -144.183          0.00461        -52.4369
60.04                 0.00453313          -52.02          1.00004        -144.223         0.999555        -144.207       0.00458713        -51.9553
60.05                 0.00450712        -51.7834          1.00005        -144.249         0.999552        -144.232       0.00456436        -51.4694
60.06                 0.00448136        -51.5446          1.00005        -144.275         0.999549        -144.256        0.0045417        -50.9791
60.07                 0.00445586        -51.3035          1.00005        -144.301         0.999547         -144.28       0.00451915        -50.4843
60.08                 0.00443061        -51.0602          1.00005        -144.327         0.999544        -144.305        0.0044967        -49.9851
60.09                 0.00440562        -50.8147          1.00004        -144.353         0.999541        -144.329       0.00447438        -49.4814
60.1                  0.00438093        -50.5675          1.00002         -144.38         0.999538        -144.354       0.00445221        -48.9737
60.11                 0.00435649        -50.3178          1.00001        -144.406         0.999535        -144.378       0.00443015        -48.4611
60.12                 0.00433232        -50.0656         0.999992        -144.432         0.999532        -144.403       0.00440821        -47.9437
60.13                 0.00430841        -49.8108         0.999975        -144.459         0.999529        -144.428       0.00438639        -47.4214
60.14                 0.00428477        -49.5533         0.999958        -144.486         0.999525        -144.452        0.0043647        -46.8939
60.15                  0.0042614         -49.293          0.99994        -144.513         0.999522        -144.477       0.00434313        -46.3613
60.16                 0.00423831          -49.03         0.999922        -144.539         0.999519        -144.502       0.00432169        -45.8233
60.17                 0.00421548         -48.764         0.999904        -144.567         0.999516        -144.527       0.00430039          -45.28
60.18                 0.00419294         -48.495         0.999885        -144.594         0.999512        -144.551       0.00427922        -44.7312
60.19                 0.00417068         -48.223         0.999865        -144.621         0.999509        -144.576       0.00425818        -44.1767
60.2                  0.00414871        -47.9477         0.999845        -144.648         0.999505        -144.601       0.00423729        -43.6164
60.21                 0.00412702        -47.6692         0.999825        -144.676         0.999501        -144.626       0.00421653        -43.0502
60.22                 0.00410563        -47.3874         0.999804        -144.704         0.999498        -144.651       0.00419593        -42.4781
60.23                 0.00408453        -47.1021         0.999782        -144.732         0.999494        -144.676       0.00417546        -41.8997
60.24                 0.00406374        -46.8131          0.99976         -144.76          0.99949        -144.701       0.00415516        -41.3151
60.25                 0.00404325        -46.5206         0.999737        -144.788         0.999486        -144.726         0.004135        -40.7241
60.26                 0.00402307        -46.2242         0.999713        -144.816         0.999482        -144.751         0.004115        -40.1264
60.27                  0.0040032        -45.9239         0.999688        -144.845         0.999477        -144.777       0.00409516         -39.522
60.28                 0.00398366        -45.6195         0.999662        -144.874         0.999473        -144.802       0.00407548        -38.9108
60.29                 0.00396444         -45.311         0.999636        -144.903         0.999469        -144.827       0.00405596        -38.2924
60.3                  0.00394555        -44.9982         0.999608        -144.932         0.999464        -144.853       0.00403661        -37.6669
60.31                   0.003927        -44.6809         0.999579        -144.962         0.999459        -144.878       0.00401744        -37.0339
60.32                 0.00390879        -44.3591         0.999549        -144.992         0.999455        -144.904       0.00399844        -36.3934
60.33                 0.00389093        -44.0325         0.999517        -145.022          0.99945         -144.93       0.00397961        -35.7451
60.34                 0.00387342         -43.701         0.999484        -145.052         0.999445        -144.955       0.00396097        -35.0888
60.35                 0.00385629        -43.3644         0.999449        -145.083         0.999439        -144.981       0.00394251        -34.4244
60.36                 0.00383952        -43.0226         0.999412        -145.114         0.999434        -145.007       0.00392424        -33.7517
60.37                 0.00382314        -42.6753         0.999373        -145.146         0.999428        -145.033       0.00390616        -33.0704
60.38                 0.00380715        -42.3224         0.999332        -145.178         0.999423         -145.06       0.00388827        -32.3803
60.39                 0.00379155        -41.9638         0.999289        -145.211         0.999417        -145.086       0.00387058        -31.6813
60.4                  0.00377638        -41.5991         0.999242        -145.244         0.999411        -145.112        0.0038531         -30.973
60.41                 0.00376162        -41.2281         0.999193        -145.278         0.999404        -145.139       0.00383582        -30.2553
60.42                  0.0037473        -40.8507          0.99914        -145.312         0.999398        -145.165       0.00381876         -29.528
60.43                 0.00373343        -40.4667         0.999083        -145.347         0.999391        -145.192       0.00380191        -28.7907
60.44                 0.00372002        -40.0757         0.999022        -145.383         0.999384        -145.219       0.00378528        -28.0433
60.45                 0.00370709        -39.6775         0.998955        -145.419         0.999377        -145.246       0.00376889        -27.2856
60.46                 0.00369467        -39.2719         0.998883        -145.457         0.999369        -145.273       0.00375272        -26.5172
60.47                 0.00368275        -38.8585         0.998804        -145.496         0.999361        -145.301        0.0037368         -25.738
60.48                 0.00367138        -38.4372         0.998718        -145.535         0.999353        -145.329       0.00372113        -24.9477
60.49                 0.00366057        -38.0077         0.998623        -145.576         0.999345        -145.356       0.00370572        -24.1461
60.5                  0.00365034        -37.5696         0.998518        -145.619         0.999336        -145.385       0.00369057         -23.333
60.51                 0.00364074        -37.1226         0.998401        -145.663         0.999327        -145.413        0.0036757        -22.5083
60.52                 0.00363178        -36.6666          0.99827        -145.709         0.999317        -145.442       0.00366113        -21.6717
60.53                 0.00362352        -36.2012         0.998122        -145.757         0.999307         -145.47       0.00364686        -20.8232
60.54                 0.00361599        -35.7263         0.997954        -145.808         0.999296          -145.5       0.00363292        -19.9628
60.55                 0.00360925        -35.2415         0.997761        -145.862         0.999285        -145.529       0.00361932        -19.0905
60.56                 0.00360335        -34.7468         0.997538        -145.919         0.999274        -145.559        0.0036061        -18.2066
60.57                 0.00359836        -34.2422         0.997279        -145.979         0.999261         -145.59       0.00359328        -17.3113
60.58                 0.00359438        -33.7277         0.996972        -146.045         0.999248         -145.62        0.0035809        -16.4053
60.59                 0.00359149        -33.2037         0.996606        -146.116         0.999235        -145.652       0.00356901        -15.4895
60.6                  0.00358984        -32.6708         0.996163        -146.194         0.999221        -145.684       0.00355767        -14.5654
60.61                 0.00358957        -32.1302         0.995618         -146.28         0.999206        -145.716       0.00354693        -13.6353
60.62                 0.00359089         -31.584         0.994935        -146.376          0.99919        -145.749       0.00353689        -12.7023
60.63                 0.00359404        -31.0354         0.994062        -146.485         0.999173        -145.783       0.00352764        -11.7714
60.64                 0.00359935        -30.4898         0.992919         -146.61         0.999155        -145.818       0.00351928        -10.8503
60.65                 0.00360723        -29.9565         0.991376        -146.755         0.999136        -145.854        0.0035119         -9.9507
60.66                 0.00361819        -29.4508         0.989226        -146.925         0.999116        -145.891       0.00350552        -9.09157
60.67                 0.00363276        -29.0003         0.986107        -147.125         0.999094        -145.929       0.00349987        -8.30398
60.68                 0.00365124        -28.6544         0.981375        -147.358         0.999071        -145.968       0.00349389        -7.64003
60.69                 0.00367252        -28.5044         0.973853        -147.608         0.999047        -146.009       0.00348415        -7.18605
60.7                  0.00369009        -28.7091         0.961541        -147.791          0.99902        -146.053        0.0034604        -7.06537
60.71                 0.00367988        -29.4474         0.942504          -147.6         0.998992        -146.098       0.00339545        -7.31664
60.72                 0.00358836        -30.3823         0.922739        -146.365         0.998961        -146.146       0.00324773        -7.23417
60.73                 0.00341766        -29.7671         0.924783        -144.283         0.998929        -146.197       0.00306441        -4.91194
60.74                    0.00331        -27.1103         0.947965        -143.185         0.998895        -146.253       0.00299029       -0.889247
60.75                   0.003299        -24.3601         0.968398        -143.177          0.99886        -146.313       0.00300561         2.43477
60.76                 0.00332622        -22.2359         0.980664        -143.502         0.998823        -146.379       0.00303787         4.81067
60.77                  0.0033609        -20.5535          0.98763        -143.844         0.998787        -146.452       0.00306336         6.69069
60.78                 0.00339482        -19.0977         0.991719        -144.137         0.998752        -146.535       0.00307982         8.35471
60.79                 0.00342696        -17.7441          0.99424        -144.377         0.998722        -146.631       0.00308925          9.9305
60.8                  0.00345815        -16.4259          0.99587        -144.575         0.998706        -146.745       0.00309387         11.4735
60.81                 0.00348967        -15.1063         0.996967        -144.739         0.998716        -146.884       0.00309555         13.0054
60.82                 0.00352314        -13.7638         0.997731        -144.878         0.998785        -147.059       0.00309602         14.5297
60.83                 0.00356077        -12.3855         0.998278        -144.997         0.998982        -147.292       0.00309734          16.035
60.84                 0.00360637        -10.9631         0.998679        -145.102         0.999487        -147.622       0.00310281         17.4906
60.85                 0.00366699        -9.54582         0.998979        -145.194          1.00005        -148.134       0.00311685          18.778
60.86                 0.00375974        -8.27209         0.999207        -145.277          1.00005        -149.049       0.00315006         19.5985
60.87                 0.00394002        -7.41843         0.999383        -145.353          1.00005        -151.049       0.00324338         19.2071
60.88                 0.00403007        -6.14228          0.99952        -145.422          1.00005        -151.997       0.00326457         19.9477
60.89                 0.00312318         1.03404         0.999623        -145.486          1.00004        -140.745       0.00260689         36.7682
60.9                  0.00331504         2.37694         0.999708        -145.545          1.00004        -142.811       0.00269823         36.0895
60.91                 0.00342205         4.22066         0.999776        -145.601          1.00004        -143.893       0.00273043         36.8917
60.92                  0.0034863         6.43045          0.99983        -145.654          1.00004        -144.481       0.00273243         38.4565
60.93                 0.00353028         8.91034         0.999873        -145.704          1.00004        -144.848       0.00271968         40.3988
60.94                 0.00356209         11.6319         0.999907        -145.752          1.00004        -145.103       0.00269807         42.5749
60.95                 0.00358469         14.5915         0.999935        -145.797          1.00004        -145.291        0.0026702         44.9225
60.96                 0.00359886         17.7959         0.999956        -145.841          1.00004        -145.439       0.00263735         47.4114
60.97                 0.00360423          21.256         0.999973        -145.884          1.00004        -145.559       0.00260019          50.026
60.98                 0.00359971         24.9841         0.999985        -145.924          1.00004         -145.66       0.00255908         52.7582
60.99                 0.00358371         28.9914         0.999995        -145.964          1.00004        -145.746       0.00251424         55.6036
61                    0.00355433         33.2867                1        -146.003          1.00004        -145.822       0.00246582         58.5603
61.01                 0.00350954         37.8741          1.00001        -146.041          1.00004        -145.891       0.00241392         61.6279
61.02                 0.00344733         42.7516          1.00001        -146.077          1.00003        -145.952       0.00235865          64.807
61.03                 0.00336603         47.9099          1.00001        -146.113          1.00003        -146.009       0.00230011         68.0988
61.04                 0.00326457         53.3317          1.00001        -146.149          1.00003        -146.062       0.00223846         71.5053
61.05                 0.00314273         58.9923                1        -146.183          1.00003        -146.111       0.00217386         75.0292
61.06                  0.0030014         64.8612                1        -146.218          1.00002        -146.158       0.00210655         78.6738
61.07                  0.0028426         70.9055         0.999998        -146.251          1.00002        -146.202        0.0020368         82.4432
61.08                 0.00266944         77.0938         0.999993        -146.284          1.00002        -146.244       0.00196494         86.3426
61.09                 0.00248585         83.4015         0.999988        -146.317          1.00002        -146.284       0.00189134         90.3782
61.1                  0.00229623         89.8156         0.999983         -146.35          1.00001        -146.324       0.00181645         94.5575
61.11                 0.00210507         96.3385         0.999978        -146.382          1.00001        -146.361       0.00174076         98.8899
61.12                 0.00191663         102.991         0.999973        -146.413          1.00001        -146.398       0.00166482         103.386
61.13                 0.00173471         109.816         0.999967        -146.445          1.00001        -146.434       0.00158921         108.058
61.14                 0.00156252         116.876         0.999962        -146.476          1.00001        -146.469       0.00151458         112.921
61.15                 0.00140273         124.252         0.999957        -146.507          1.00001        -146.503       0.00144161          117.99
61.16                 0.00125755          132.04         0.999952        -146.537          1.00001        -146.536       0.00137101         123.281
61.17                  0.0011288         140.339         0.999946        -146.567          1.00001        -146.569       0.00130352          128.81
61.18                 0.00101802         149.231         0.999941        -146.598          1.00001        -146.601        0.0012399         134.591
61.19                0.000926499         158.746         0.999936        -146.628          1.00001        -146.633       0.00118093         140.634
61.2                 0.000855148         168.829         0.999931        -146.657          1.00001        -146.664       0.00112736         146.939
61.21                0.000804256         179.301         0.999927        -146.687          1.00001        -146.695       0.00107991         153.499
61.22                0.000773231        -170.132         0.999922        -146.716          1.00001        -146.726       0.00103925         160.288
61.23                0.000760467        -159.825         0.999917        -146.746          1.00001        -146.756       0.00100592         167.267
61.24                0.000763493        -150.105         0.999913        -146.775          1.00001        -146.786      0.000980326         174.377
61.25                0.000779369        -141.199         0.999908        -146.804          1.00001        -146.816       0.00096267        -178.457
61.26                0.000805142         -133.21         0.999904        -146.833          1.00001        -146.846      0.000952955        -171.319
61.27                0.000838187         -126.14         0.999899        -146.862          1.00001        -146.875      0.000950966        -164.296
61.28                0.000876365        -119.922         0.999895         -146.89          1.00001        -146.904      0.000956291        -157.469
61.29                0.000918031        -114.465         0.999891        -146.919          1.00001        -146.933       0.00096837        -150.907
61.3                 0.000961981        -109.665         0.999887        -146.948          1.00001        -146.962      0.000986539        -144.662
61.31                 0.00100736         -105.43         0.999883        -146.976          1.00001         -146.99       0.00101009        -138.767
61.32                 0.00105359        -101.674         0.999879        -147.005          1.00001        -147.019       0.00103833        -133.236
61.33                 0.00110028        -98.3254         0.999875        -147.033          1.00001        -147.047       0.00107059        -128.072
61.34                  0.0011472        -95.3245         0.999872        -147.061          1.00001        -147.075       0.00110629        -123.265
61.35                 0.00119425        -92.6219         0.999868         -147.09                1        -147.104       0.00114494          -118.8
61.36                 0.00124133        -90.1751         0.999864        -147.118         0.999994        -147.132       0.00118607        -114.655
61.37                 0.00128845        -87.9499         0.999861        -147.146         0.999987         -147.16       0.00122931        -110.807
61.38                 0.00133565        -85.9174         0.999858        -147.175         0.999979        -147.188       0.00127439        -107.235
61.39                 0.00138301        -84.0538         0.999855        -147.203         0.999972        -147.216       0.00132109        -103.915
61.4                  0.00143061        -82.3389         0.999851        -147.231         0.999965        -147.244       0.00136925        -100.826
61.41                 0.00147858        -80.7557         0.999848         -147.26         0.999959        -147.272       0.00141878        -97.9478
61.42                 0.00152704        -79.2898         0.999845        -147.288         0.999953          -147.3        0.0014696        -95.2628
61.43                 0.00157614         -77.929         0.999843        -147.316         0.999947        -147.327        0.0015217        -92.7546
61.44                 0.00162603        -76.6628          0.99984        -147.345         0.999941        -147.355        0.0015751        -90.4084
61.45                 0.00167688        -75.4819         0.999837        -147.373         0.999935        -147.383       0.00162984         -88.211
61.46                 0.00172886        -74.3787         0.999835        -147.402          0.99993        -147.411       0.00168601        -86.1506
61.47                 0.00178217        -73.3461         0.999832         -147.43         0.999925        -147.439        0.0017437        -84.2167
61.48                   0.001837        -72.3783          0.99983        -147.459          0.99992        -147.468       0.00180306        -82.3998
61.49                 0.00189357          -71.47         0.999828        -147.488         0.999915        -147.496       0.00186423        -80.6915
61.5                  0.00195212        -70.6166         0.999826        -147.516          0.99991        -147.524       0.00192741        -79.0843
61.51                 0.00201291        -69.8139         0.999824        -147.545         0.999906        -147.553        0.0019928        -77.5713
61.52                  0.0020762        -69.0583         0.999822        -147.575         0.999902        -147.581       0.00206064        -76.1465
61.53                 0.00214231        -68.3466          0.99982        -147.604         0.999897         -147.61       0.00213121        -74.8045
61.54                 0.00221155        -67.6758         0.999819        -147.633         0.999893        -147.639       0.00220481        -73.5403
61.55                 0.00228431        -67.0434         0.999817        -147.663         0.999889        -147.668       0.00228179        -72.3495
61.56                 0.00236098         -66.447         0.999816        -147.693         0.999885        -147.697       0.00236255        -71.2281
61.57                 0.00244203        -65.8845         0.999814        -147.723         0.999881        -147.726       0.00244751        -70.1724
61.58                 0.00252797         -65.354         0.999813        -147.753         0.999878        -147.756       0.00253718         -69.179
61.59                 0.00261937        -64.8538         0.999812        -147.784         0.999874        -147.786       0.00263214        -68.2451
61.6                   0.0027169        -64.3822         0.999811        -147.815          0.99987        -147.816       0.00273303        -67.3677
61.61                  0.0028213        -63.9379          0.99981        -147.846         0.999867        -147.847       0.00284059        -66.5445
61.62                 0.00293345        -63.5194         0.999809        -147.878         0.999863        -147.878       0.00295569        -65.7731
61.63                 0.00305434        -63.1258         0.999808         -147.91          0.99986         -147.91       0.00307932        -65.0514
61.64                 0.00318514        -62.7557         0.999808        -147.943         0.999856        -147.942       0.00321265        -64.3774
61.65                 0.00332722        -62.4084         0.999807        -147.977         0.999853        -147.975       0.00335704        -63.7494
61.66                  0.0034822        -62.0828         0.999806        -148.011         0.999849        -148.008       0.00351411        -63.1657
61.67                   0.003652        -61.7781         0.999806        -148.046         0.999846        -148.043       0.00368579        -62.6249
61.68                 0.00383895        -61.4937         0.999805        -148.082         0.999842        -148.078       0.00387439        -62.1254
61.69                 0.00404587        -61.2289         0.999805        -148.119         0.999839        -148.115       0.00408272        -61.6662
61.7                  0.00427618         -60.983         0.999804        -148.158         0.999835        -148.152       0.00431423        -61.2459
61.71                 0.00453418        -60.7557         0.999804        -148.198         0.999831        -148.192       0.00457319        -60.8636
61.72                 0.00482523        -60.5466         0.999803         -148.24         0.999827        -148.233       0.00486497        -60.5184
61.73                 0.00515616        -60.3554         0.999802        -148.284         0.999823        -148.277       0.00519639        -60.2095
61.74                  0.0055358        -60.1821         0.999801        -148.331         0.999818        -148.323       0.00557629        -59.9364
61.75                 0.00597579        -60.0267           0.9998        -148.381         0.999813        -148.373       0.00601628        -59.6985
61.76                 0.00649176        -59.8895         0.999797        -148.436         0.999807        -148.427       0.00653199        -59.4959
61.77                 0.00710524        -59.7714         0.999795        -148.496           0.9998        -148.486       0.00714494        -59.3287
61.78                  0.0078467        -59.6735          0.99979        -148.564         0.999792        -148.553       0.00788556        -59.1977
61.79                 0.00876078        -59.5979         0.999784        -148.641         0.999781         -148.63       0.00879844        -59.1046
61.8                  0.00991552        -59.5481         0.999775        -148.733         0.999767        -148.721       0.00995159        -59.0525
61.81                  0.0114202          -59.53          0.99976        -148.844         0.999747        -148.832        0.0114541        -59.0466
61.82                  0.0134617        -59.5537         0.999737        -148.986         0.999717        -148.973        0.0134927        -59.0971
61.83                  0.0163893         -59.639         0.999695        -149.179         0.999667        -149.165        0.0164162        -59.2232
61.84                  0.0209383        -59.8278         0.999611        -149.464         0.999574         -149.45        0.0209586        -59.4668
61.85                  0.0289687        -60.2266         0.999413        -149.949          0.99936        -149.934        0.0289763        -59.9348
61.86                  0.0469396        -61.2067         0.998735        -151.003         0.998648        -150.987        0.0469118        -61.0011
61.87                   0.122874        -65.5431          0.99233        -155.383         0.992046        -155.366         0.122559        -65.4564
61.88                   0.192277         132.691         0.981357        -137.255         0.981168        -137.237         0.192757         132.882
61.89                  0.0546967         124.743         0.998387        -145.255         0.998378        -145.237        0.0546977          124.71
61.9                   0.0318553         123.448         0.999362        -146.591         0.999345        -146.572        0.0318338         123.278
61.91                  0.0224853         122.921         0.999614        -147.153         0.999588        -147.134        0.0224613         122.614
61.92                  0.0173854         122.632         0.999716        -147.471         0.999682         -147.45        0.0173628         122.182
61.93                  0.0141794         122.444         0.999768        -147.679         0.999727        -147.659        0.0141592         121.844
61.94                  0.0119781         122.308         0.999799         -147.83         0.999752        -147.809        0.0119608          121.55
61.95                  0.0103737         122.199          0.99982        -147.947         0.999767        -147.925        0.0103594         121.276
61.96                 0.00915259         122.106         0.999836        -148.042         0.999776         -148.02       0.00914166          121.01
61.97                 0.00819242         122.022         0.999847        -148.122         0.999782        -148.099       0.00818491         120.748