! TOUCHSTONE file generated by CST MICROWAVE STUDIO
! Date and time: Sun Mar  3 12:20:12 2024
! Project name: aire_def.cst
! Parameters = {d=9}
! Header version: 2018
! Port assignment regex: !\s*Touchstone port\s*([0-9]+)\s*=\s*(CST MWS port|CST DS port)\s*([0-9]+|Zmin|Zmax)\s*\(\"(.*)\"\)(\s*mode\s*([0-9]+))?.*
! Touchstone port assignment:
! Touchstone port 1 = CST MWS port 1 ("")
! Touchstone port 2 = CST MWS port 2 ("")
# GHz S MA R 376.7
60                   0.000278782         -58.319         0.999524        -143.825                1        -143.811      0.000205931        -24.3513
60.01                0.000272099         -58.631         0.999529        -143.849                1        -143.834       0.00019983        -23.3831
60.02                0.000265417        -58.9578         0.999534        -143.872                1        -143.858      0.000193793        -22.3526
60.03                0.000258736        -59.3004         0.999539        -143.896                1        -143.882      0.000187824        -21.2547
60.04                0.000252058        -59.6602         0.999545         -143.92                1        -143.905      0.000181932        -20.0835
60.05                0.000245383        -60.0385          0.99955        -143.944                1        -143.929      0.000176123        -18.8329
60.06                0.000238712        -60.4369         0.999555        -143.967                1        -143.953      0.000170407        -17.4961
60.07                0.000232045        -60.8571          0.99956        -143.991                1        -143.977      0.000164793        -16.0655
60.08                0.000225384         -61.301         0.999565        -144.015                1            -144      0.000159292        -14.5334
60.09                 0.00021873        -61.7708          0.99957        -144.038                1        -144.024      0.000153917        -12.8913
60.1                 0.000212084        -62.2689         0.999575        -144.062                1        -144.048      0.000148681        -11.1301
60.11                0.000205447         -62.798          0.99958        -144.086                1        -144.071      0.000143599        -9.24051
60.12                0.000198822        -63.3611         0.999585         -144.11                1        -144.095      0.000138689        -7.21296
60.13                0.000192209        -63.9617          0.99959        -144.133                1        -144.119      0.000133969        -5.03781
60.14                0.000185612        -64.6037         0.999595        -144.157                1        -144.143      0.000129461        -2.70576
60.15                0.000179032        -65.2917           0.9996        -144.181                1        -144.166      0.000125187       -0.208267
60.16                0.000172472        -66.0306         0.999605        -144.204                1         -144.19      0.000121172         2.46187
60.17                0.000165936        -66.8265          0.99961        -144.228                1        -144.214      0.000117443         5.30983
60.18                0.000159426         -67.686         0.999615        -144.252                1        -144.237      0.000114028         8.33791
60.19                0.000152948         -68.617          0.99962        -144.276                1        -144.261      0.000110956         11.5446
60.2                 0.000146506        -69.6286         0.999625        -144.299                1        -144.285      0.000108256         14.9237
60.21                0.000140106        -70.7314          0.99963        -144.323                1        -144.309      0.000105957         18.4636
60.22                0.000133755        -71.9377         0.999635        -144.347                1        -144.332      0.000104085         22.1464
60.23                0.000127461         -73.262         0.999639         -144.37                1        -144.356      0.000102664         25.9481
60.24                0.000121235        -74.7215         0.999644        -144.394                1         -144.38      0.000101712         29.8392
60.25                0.000115087        -76.3364         0.999649        -144.418                1        -144.403      0.000101243         33.7851
60.26                0.000109034        -78.1303         0.999654        -144.442                1        -144.427      0.000101263         37.7485
60.27                0.000103091        -80.1314         0.999659        -144.465                1        -144.451      0.000101772         41.6908
60.28                9.72813e-05        -82.3727         0.999663        -144.489                1        -144.475      0.000102763         45.5749
60.29                9.16308e-05         -84.893         0.999668        -144.513                1        -144.498      0.000104221         49.3668
60.3                 8.61722e-05         -87.737         0.999673        -144.537                1        -144.522      0.000106128         53.0371
60.31                8.09457e-05        -90.9555         0.999677         -144.56                1        -144.546       0.00010846         56.5625
60.32                7.60008e-05        -94.6043         0.999682        -144.584                1        -144.569       0.00011119         59.9258
60.33                7.13975e-05        -98.7411         0.999687        -144.608                1        -144.593      0.000114288         63.1158
60.34                6.72076e-05         -103.42         0.999691        -144.631                1        -144.617      0.000117727         66.1267
60.35                6.35147e-05        -108.681         0.999696        -144.655                1        -144.641      0.000121477         68.9576
60.36                6.04117e-05        -114.538           0.9997        -144.679                1        -144.664      0.000125509         71.6108
60.37                5.79953e-05        -120.955         0.999705        -144.703                1        -144.688      0.000129798         74.0919
60.38                5.63556e-05        -127.839          0.99971        -144.726                1        -144.712      0.000134319         76.4082
60.39                5.55633e-05         -135.03         0.999714         -144.75                1        -144.735      0.000139048         78.5683
60.4                 5.56564e-05        -142.317         0.999719        -144.774                1        -144.759      0.000143966         80.5815
60.41                5.66324e-05         -149.47         0.999723        -144.798                1        -144.783      0.000149053         82.4576
60.42                5.84486e-05        -156.286         0.999728        -144.821                1        -144.807      0.000154292          84.206
60.43                6.10317e-05        -162.615         0.999732        -144.845                1         -144.83      0.000159669         85.8361
60.44                6.42909e-05        -168.373         0.999736        -144.869                1        -144.854      0.000165169         87.3569
60.45                6.81305e-05        -173.536         0.999741        -144.892                1        -144.878       0.00017078         88.7767
60.46                7.24596e-05        -178.122         0.999745        -144.916                1        -144.901      0.000176493         90.1035
60.47                7.71972e-05         177.826          0.99975         -144.94                1        -144.925      0.000182296         91.3446
60.48                8.22737e-05         174.252         0.999754        -144.964                1        -144.949      0.000188182         92.5066
60.49                8.76312e-05         171.098         0.999758        -144.987                1        -144.973      0.000194142         93.5959
60.5                 9.32224e-05          168.31         0.999763        -145.011                1        -144.996      0.000200171         94.6182
60.51                9.90084e-05         165.838         0.999767        -145.035                1         -145.02      0.000206261         95.5785
60.52                0.000104958         163.638         0.999771        -145.059                1        -145.044      0.000212407         96.4818
60.53                0.000111045         161.672         0.999775        -145.082                1        -145.068      0.000218604         97.3324
60.54                 0.00011725         159.907          0.99978        -145.106                1        -145.091      0.000224848         98.1342
60.55                0.000123555         158.318         0.999784         -145.13                1        -145.115      0.000231135         98.8909
60.56                0.000129945          156.88         0.999788        -145.154                1        -145.139      0.000237461         99.6058
60.57                0.000136411         155.574         0.999792        -145.177                1        -145.162      0.000243823         100.282
60.58                0.000142941         154.384         0.999797        -145.201                1        -145.186      0.000250218         100.922
60.59                0.000149529         153.295         0.999801        -145.225                1         -145.21      0.000256644         101.528
60.6                 0.000156167         152.294         0.999805        -145.249                1        -145.234      0.000263097         102.104
60.61                0.000162849         151.373         0.999809        -145.272                1        -145.257      0.000269575          102.65
60.62                0.000169571         150.522         0.999813        -145.296                1        -145.281      0.000276078         103.169
60.63                0.000176328         149.733         0.999817         -145.32                1        -145.305      0.000282602         103.663
60.64                0.000183117         148.999         0.999821        -145.344                1        -145.329      0.000289146         104.133
60.65                0.000189936         148.316         0.999825        -145.367                1        -145.352      0.000295709         104.581
60.66                 0.00019678         147.677         0.999829        -145.391                1        -145.376      0.000302289         105.008
60.67                0.000203648          147.08         0.999833        -145.415                1          -145.4      0.000308884         105.415
60.68                0.000210538         146.519         0.999837        -145.439                1        -145.423      0.000315494         105.804
60.69                0.000217447         145.991         0.999841        -145.462                1        -145.447      0.000322118         106.176
60.7                 0.000224376         145.494         0.999845        -145.486                1        -145.471      0.000328754         106.531
60.71                0.000231321         145.024         0.999849         -145.51                1        -145.495      0.000335401         106.872
60.72                0.000238281          144.58         0.999853        -145.534                1        -145.518      0.000342059         107.197
60.73                0.000245256         144.159         0.999857        -145.557                1        -145.542      0.000348727         107.509
60.74                0.000252245         143.759         0.999861        -145.581                1        -145.566      0.000355404         107.808
60.75                0.000259246         143.379         0.999865        -145.605                1         -145.59      0.000362089         108.095
60.76                0.000266259         143.018         0.999868        -145.629                1        -145.613      0.000368781         108.371
60.77                0.000273283         142.673         0.999872        -145.652                1        -145.637       0.00037548         108.635
60.78                0.000280317         142.343         0.999876        -145.676                1        -145.661      0.000382186         108.889
60.79                0.000287361         142.028          0.99988          -145.7                1        -145.684      0.000388898         109.133
60.8                 0.000294414         141.727         0.999884        -145.724                1        -145.708      0.000395614         109.368
60.81                0.000301476         141.438         0.999887        -145.747                1        -145.732      0.000402336         109.594
60.82                0.000308545          141.16         0.999891        -145.771                1        -145.756      0.000409061         109.811
60.83                0.000315623         140.894         0.999895        -145.795                1        -145.779      0.000415791         110.021
60.84                0.000322707         140.637         0.999898        -145.819                1        -145.803      0.000422524         110.222
60.85                0.000329798         140.391         0.999902        -145.842                1        -145.827       0.00042926         110.416
60.86                0.000336896         140.153         0.999906        -145.866                1        -145.851      0.000435999         110.604
60.87                   0.000344         139.923         0.999909         -145.89                1        -145.874       0.00044274         110.784
60.88                0.000351109         139.701         0.999913        -145.914                1        -145.898      0.000449483         110.958
60.89                0.000358224         139.487         0.999917        -145.937                1        -145.922      0.000456227         111.126
60.9                 0.000365344          139.28          0.99992        -145.961                1        -145.946      0.000462973         111.288
60.91                0.000372469         139.079         0.999924        -145.985                1        -145.969       0.00046972         111.445
60.92                0.000379599         138.885         0.999927        -146.009                1        -145.993      0.000476468         111.596
60.93                0.000386733         138.696         0.999931        -146.032                1        -146.017      0.000483216         111.742
60.94                0.000393872         138.513         0.999934        -146.056                1         -146.04      0.000489964         111.883
60.95                0.000401014         138.335         0.999938         -146.08                1        -146.064      0.000496713          112.02
60.96                 0.00040816         138.162         0.999941        -146.104                1        -146.088      0.000503461         112.151
60.97                 0.00041531         137.994         0.999945        -146.127                1        -146.112      0.000510208         112.279
60.98                0.000422463         137.831         0.999948        -146.151                1        -146.135      0.000516955         112.402
60.99                0.000429619         137.671         0.999951        -146.175                1        -146.159      0.000523701         112.521
61                   0.000436778         137.516         0.999955        -146.199                1        -146.183      0.000530446         112.636
61.01                 0.00044394         137.365         0.999958        -146.222                1        -146.207      0.000537189         112.748
61.02                0.000451105         137.217         0.999962        -146.246                1         -146.23      0.000543931         112.856
61.03                0.000458272         137.073         0.999965         -146.27                1        -146.254      0.000550671          112.96
61.04                0.000465441         136.932         0.999968        -146.294                1        -146.278       0.00055741         113.061
61.05                0.000472613         136.794         0.999972        -146.318                1        -146.302      0.000564146         113.159
61.06                0.000479786         136.659         0.999975        -146.341                1        -146.325       0.00057088         113.254
61.07                0.000486962         136.528         0.999978        -146.365                1        -146.349      0.000577611         113.346
61.08                0.000494139         136.399         0.999981        -146.389                1        -146.373       0.00058434         113.435
61.09                0.000501318         136.272         0.999985        -146.413                1        -146.396      0.000591066         113.521
61.1                 0.000508498         136.149         0.999988        -146.436                1         -146.42      0.000597789         113.604
61.11                 0.00051568         136.027         0.999991         -146.46                1        -146.444      0.000604509         113.685
61.12                0.000522862         135.908         0.999994        -146.484                1        -146.468      0.000611226         113.763
61.13                0.000530046         135.792         0.999997        -146.508                1        -146.491       0.00061794         113.839
61.14                0.000537231         135.677                1        -146.531                1        -146.515       0.00062465         113.912
61.15                0.000544416         135.565                1        -146.555                1        -146.539      0.000631356         113.983
61.16                0.000551602         135.454                1        -146.579                1        -146.563      0.000638059         114.052
61.17                0.000558789         135.345                1        -146.603                1        -146.586      0.000644758         114.119
61.18                0.000565976         135.238                1        -146.626                1         -146.61      0.000651453         114.183
61.19                0.000573163         135.133                1         -146.65                1        -146.634      0.000658143         114.246
61.2                 0.000580351          135.03                1        -146.674                1        -146.658      0.000664829         114.307
61.21                0.000587538         134.928                1        -146.698                1        -146.681      0.000671511         114.365
61.22                0.000594725         134.828                1        -146.722                1        -146.705      0.000678189         114.422
61.23                0.000601913         134.729                1        -146.745                1        -146.729      0.000684861         114.477
61.24                  0.0006091         134.632                1        -146.769                1        -146.753      0.000691529          114.53
61.25                0.000616286         134.536                1        -146.793                1        -146.776      0.000698192         114.582
61.26                0.000623472         134.442                1        -146.817                1          -146.8       0.00070485         114.632
61.27                0.000630657         134.349                1         -146.84                1        -146.824      0.000711502          114.68
61.28                0.000637842         134.257                1        -146.864                1        -146.848       0.00071815         114.727
61.29                0.000645025         134.166                1        -146.888                1        -146.871      0.000724792         114.772
61.3                 0.000652208         134.077                1        -146.912                1        -146.895      0.000731428         114.816
61.31                0.000659389         133.988                1        -146.935                1        -146.919      0.000738059         114.858
61.32                0.000666569         133.901                1        -146.959                1        -146.942      0.000744684         114.899
61.33                0.000673748         133.815                1        -146.983                1        -146.966      0.000751304         114.939
61.34                0.000680925          133.73                1        -147.007                1         -146.99      0.000757917         114.977
61.35                0.000688101         133.645                1         -147.03                1        -147.014      0.000764525         115.014
61.36                0.000695275         133.562                1        -147.054                1        -147.037      0.000771126          115.05
61.37                0.000702447          133.48                1        -147.078                1        -147.061      0.000777721         115.084
61.38                0.000709618         133.398                1        -147.102                1        -147.085      0.000784309         115.118
61.39                0.000716786         133.318                1        -147.126                1        -147.109      0.000790892          115.15
61.4                 0.000723952         133.238                1        -147.149                1        -147.132      0.000797467         115.181
61.41                0.000731116         133.159                1        -147.173                1        -147.156      0.000804036         115.211
61.42                0.000738277         133.081                1        -147.197                1         -147.18      0.000810598         115.239
61.43                0.000745436         133.004                1        -147.221                1        -147.204      0.000817153         115.267
61.44                0.000752592         132.927                1        -147.244                1        -147.227      0.000823702         115.294
61.45                0.000759746         132.851                1        -147.268                1        -147.251      0.000830243          115.32
61.46                0.000766897         132.776                1        -147.292                1        -147.275      0.000836777         115.344
61.47                0.000774045         132.701                1        -147.316                1        -147.299      0.000843304         115.368
61.48                0.000781189         132.627                1        -147.339                1        -147.322      0.000849823         115.391
61.49                0.000788331         132.554                1        -147.363                1        -147.346      0.000856335         115.413
61.5                 0.000795469         132.482                1        -147.387                1         -147.37      0.000862839         115.434
61.51                0.000802604          132.41                1        -147.411                1        -147.394      0.000869336         115.454
61.52                0.000809735         132.338                1        -147.435                1        -147.417      0.000875824         115.473
61.53                0.000816863         132.267                1        -147.458                1        -147.441      0.000882305         115.492
61.54                0.000823987         132.197                1        -147.482                1        -147.465      0.000888778         115.509
61.55                0.000831107         132.127                1        -147.506                1        -147.489      0.000895243         115.526
61.56                0.000838223         132.058                1         -147.53                1        -147.512        0.0009017         115.542
61.57                0.000845335         131.989                1        -147.553                1        -147.536      0.000908148         115.557
61.58                0.000852443         131.921                1        -147.577                1         -147.56      0.000914588         115.572
61.59                0.000859546         131.853                1        -147.601                1        -147.584       0.00092102         115.586
61.6                 0.000866645         131.786                1        -147.625                1        -147.607      0.000927443         115.599
61.61                 0.00087374         131.719                1        -147.649                1        -147.631      0.000933857         115.611
61.62                0.000880829         131.652                1        -147.672                1        -147.655      0.000940263         115.623
61.63                0.000887914         131.586                1        -147.696                1        -147.679      0.000946659         115.634
61.64                0.000894994         131.521                1         -147.72                1        -147.702      0.000953047         115.644
61.65                0.000902069         131.455                1        -147.744                1        -147.726      0.000959426         115.654
61.66                0.000909139         131.391                1        -147.767                1         -147.75      0.000965796         115.663
61.67                0.000916203         131.326                1        -147.791                1        -147.774      0.000972156         115.671
61.68                0.000923262         131.262                1        -147.815                1        -147.797      0.000978507         115.679
61.69                0.000930315         131.198                1        -147.839                1        -147.821      0.000984849         115.686
61.7                 0.000937363         131.135                1        -147.862                1        -147.845      0.000991181         115.693
61.71                0.000944405         131.072                1        -147.886                1        -147.869      0.000997503         115.699
61.72                0.000951441         131.009                1         -147.91                1        -147.892       0.00100382         115.704
61.73                0.000958471         130.947                1        -147.934                1        -147.916       0.00101012         115.709
61.74                0.000965495         130.885                1        -147.958                1         -147.94       0.00101641         115.714
61.75                0.000972513         130.823                1        -147.981                1        -147.964        0.0010227         115.717
61.76                0.000979524         130.762                1        -148.005                1        -147.987       0.00102897         115.721
61.77                0.000986529         130.701                1        -148.029                1        -148.011       0.00103523         115.723
61.78                0.000993527          130.64                1        -148.053                1        -148.035       0.00104148         115.726
61.79                 0.00100052         130.579                1        -148.076                1        -148.058       0.00104773         115.728
61.8                   0.0010075         130.519                1          -148.1                1        -148.082       0.00105396         115.729
61.81                 0.00101448         130.459                1        -148.124                1        -148.106       0.00106018          115.73
61.82                 0.00102145         130.399                1        -148.148                1         -148.13       0.00106639          115.73
61.83                 0.00102841          130.34                1        -148.172                1        -148.153       0.00107259          115.73
61.84                 0.00103537         130.281                1        -148.195                1        -148.177       0.00107878         115.729
61.85                 0.00104232         130.222                1        -148.219                1        -148.201       0.00108496         115.728
61.86                 0.00104926         130.163                1        -148.243                1        -148.225       0.00109112         115.727
61.87                 0.00105619         130.105                1        -148.267                1        -148.248       0.00109728         115.725
61.88                 0.00106311         130.046                1         -148.29                1        -148.272       0.00110342         115.722
61.89                 0.00107003         129.988                1        -148.314                1        -148.296       0.00110956         115.719
61.9                  0.00107694          129.93                1        -148.338                1         -148.32       0.00111568         115.716
61.91                 0.00108384         129.873                1        -148.362                1        -148.343       0.00112179         115.713
61.92                 0.00109073         129.815                1        -148.385                1        -148.367       0.00112789         115.709
61.93                 0.00109761         129.758                1        -148.409                1        -148.391       0.00113397         115.704
61.94                 0.00110449         129.701                1        -148.433                1        -148.415       0.00114005           115.7
61.95                 0.00111135         129.644                1        -148.457                1        -148.438       0.00114611         115.694
61.96                 0.00111821         129.588                1        -148.481                1        -148.462       0.00115216         115.689
61.97                 0.00112506         129.531                1        -148.504                1        -148.486        0.0011582         115.683