! TOUCHSTONE file generated by CST MICROWAVE STUDIO
! Date and time: Tue Feb 27 23:57:08 2024
! Project name: aire_des.cst
! Header version: 2018
! Port assignment regex: !\s*Touchstone port\s*([0-9]+)\s*=\s*(CST MWS port|CST DS port)\s*([0-9]+|Zmin|Zmax)\s*\(\"(.*)\"\)(\s*mode\s*([0-9]+))?.*
! Touchstone port assignment:
! Touchstone port 1 = CST MWS port 1 ("")
! Touchstone port 2 = CST MWS port 2 ("")
# GHz S MA R 376.7
60                     0.0416016        -56.5475         0.999298        -146.189         0.999666        -146.183        0.0415891        -55.7608
60.01                  0.0420621         -56.605         0.999272        -146.242          0.99963        -146.235        0.0420399        -55.8092
60.02                  0.0425405        -56.6634         0.999246        -146.295         0.999593        -146.288        0.0425089        -55.8588
60.03                  0.0430381        -56.7228         0.999218        -146.349         0.999555        -146.341        0.0429972        -55.9095
60.04                   0.043556        -56.7833         0.999189        -146.404         0.999517        -146.396        0.0435061        -55.9614
60.05                  0.0440956        -56.8449         0.999158        -146.461         0.999478        -146.452        0.0440368        -56.0147
60.06                  0.0446583        -56.9077         0.999127        -146.519         0.999438        -146.509        0.0445908        -56.0694
60.07                  0.0452459        -56.9718         0.999094        -146.578         0.999396        -146.568        0.0451699        -56.1256
60.08                  0.0458601        -57.0372          0.99906        -146.639         0.999354        -146.629        0.0457757        -56.1834
60.09                  0.0465027        -57.1042         0.999023        -146.702          0.99931         -146.69        0.0464102        -56.2429
60.1                   0.0471761        -57.1728         0.998986        -146.766         0.999265        -146.754        0.0470756        -56.3043
60.11                  0.0478824        -57.2432         0.998946        -146.832         0.999218         -146.82        0.0477741        -56.3676
60.12                  0.0486244        -57.3155         0.998903          -146.9         0.999169        -146.887        0.0485085         -56.433
60.13                  0.0494049        -57.3899         0.998859         -146.97         0.999118        -146.957        0.0492816        -56.5007
60.14                  0.0502272        -57.4665         0.998811        -147.043         0.999064         -147.03        0.0500966        -56.5708
60.15                  0.0510948        -57.5456         0.998761        -147.119         0.999008        -147.104        0.0509572        -56.6437
60.16                  0.0520118        -57.6274         0.998708        -147.197         0.998949        -147.182        0.0518673        -56.7194
60.17                  0.0529828        -57.7121          0.99865        -147.278         0.998886        -147.263        0.0528316        -56.7982
60.18                  0.0540127        -57.8001         0.998589        -147.363          0.99882        -147.347        0.0538551        -56.8805
60.19                  0.0551073        -57.8916         0.998523        -147.451         0.998749        -147.435        0.0549434        -56.9666
60.2                   0.0562732        -57.9871         0.998452        -147.543         0.998674        -147.527        0.0561033        -57.0568
60.21                  0.0575178        -58.0869         0.998375         -147.64         0.998593        -147.623        0.0573421        -57.1516
60.22                  0.0588497        -58.1916         0.998291        -147.742         0.998505        -147.725        0.0586684        -57.2515
60.23                  0.0602786        -58.3017           0.9982         -147.85         0.998411        -147.832        0.0600919         -57.357
60.24                  0.0618158        -58.4179           0.9981        -147.964         0.998307        -147.945         0.061624        -57.4687
60.25                  0.0634745        -58.5409          0.99799        -148.084         0.998194        -148.065        0.0632778        -57.5875
60.26                  0.0652702        -58.6715         0.997868        -148.213          0.99807        -148.194        0.0650689        -57.7142
60.27                  0.0672208         -58.811         0.997732         -148.35         0.997932        -148.331        0.0670152        -57.8499
60.28                   0.069348        -58.9604         0.997581        -148.498         0.997779        -148.478        0.0691384        -57.9958
60.29                  0.0716772        -59.1212          0.99741        -148.657         0.997607        -148.637         0.071464        -58.1533
60.3                   0.0742393        -59.2953         0.997217         -148.83         0.997412        -148.809        0.0740228        -58.3243
60.31                  0.0770718        -59.4848         0.996996        -149.018         0.997191        -148.997        0.0768524        -58.5109
60.32                  0.0802206        -59.6923         0.996742        -149.224         0.996936        -149.203        0.0799987        -58.7158
60.33                  0.0837425        -59.9211         0.996446        -149.452         0.996641        -149.431        0.0835188        -58.9423
60.34                  0.0877091        -60.1754         0.996099        -149.706         0.996294        -149.684        0.0874841        -59.1945
60.35                  0.0922113        -60.4603         0.995686         -149.99         0.995882        -149.968        0.0919856        -59.4777
60.36                  0.0973665        -60.7828         0.995189        -150.312         0.995387         -150.29        0.0971411        -59.7987
60.37                   0.103329        -61.1518         0.994582        -150.681         0.994781        -150.658         0.103105        -60.1664
60.38                   0.110307        -61.5794         0.993826        -151.108         0.994028        -151.086         0.110085        -60.5931
60.39                   0.118583         -62.082         0.992866        -151.611         0.993072        -151.589         0.118365        -61.0952
60.4                    0.128559        -62.6832         0.991617        -152.212         0.991827         -152.19         0.128348        -61.6963
60.41                   0.140819        -63.4171         0.989943        -152.947         0.990159        -152.925         0.140616        -62.4306
60.42                   0.156244        -64.3359         0.987617        -153.866         0.987839        -153.844         0.156054        -63.3504
60.43                   0.176232        -65.5226         0.984237        -155.052         0.984466        -155.032         0.176061        -64.5386
60.44                   0.203129        -67.1177         0.979027        -156.647         0.979263        -156.628         0.202986        -66.1365
60.45                   0.241168        -69.3794         0.970337        -158.907         0.970579        -158.891         0.241069        -68.4024
60.46                   0.298737        -72.8336         0.954152        -162.359          0.95439        -162.347         0.298708        -71.8633
60.47                   0.394488        -78.7177         0.918635        -168.235         0.918828        -168.232         0.394579        -77.7593
60.48                   0.574175        -90.5703         0.818199         179.934         0.818175         179.921         0.574461        -89.6351
60.49                   0.900567        -119.898         0.432256         150.723         0.431465         150.711         0.900691            -119
60.5                    0.889704        -172.513         0.453639        -82.2353         0.453536        -82.3119         0.889091        -171.559
60.51                   0.542232         157.358         0.839459        -112.267         0.838947        -112.246         0.542375         158.356
60.52                   0.354233         145.226         0.934736        -124.383         0.934403        -124.346         0.354613         146.227
60.53                   0.255277         139.241         0.966558        -130.365         0.966353        -130.325         0.255714         140.238
60.54                   0.196221         135.743         0.980296        -133.864         0.980171        -133.824          0.19667         136.735
60.55                   0.157382         133.461         0.987297        -136.151         0.987223         -136.11         0.157832         134.447
60.56                   0.130008         131.856         0.991283        -137.761         0.991245         -137.72         0.130455         132.836
60.57                    0.10971         130.666          0.99374        -138.957         0.993728        -138.917         0.110153          131.64
60.58                  0.0940702         129.747         0.995344        -139.883         0.995352        -139.842        0.0945108         130.716
60.59                  0.0816542         129.017          0.99644        -140.623         0.996464        -140.582         0.082092         129.979
60.6                   0.0715583         128.422         0.997214        -141.228         0.997252        -141.187        0.0719936         129.377
60.61                  0.0631865         127.927         0.997778        -141.734         0.997826        -141.693        0.0636197         128.874
60.62                  0.0561301         127.509         0.998197        -142.164         0.998255        -142.123        0.0565616         128.448
60.63                  0.0500997         127.151         0.998514        -142.535         0.998581        -142.494        0.0505297         128.082
60.64                  0.0448847         126.842         0.998759        -142.859         0.998833        -142.818        0.0453136         127.763
60.65                  0.0403284         126.572         0.998949        -143.146          0.99903        -143.104        0.0407562         127.482
60.66                  0.0363115         126.335           0.9991        -143.401         0.999187        -143.359        0.0367385         127.233
60.67                   0.032742         126.126         0.999219        -143.631         0.999312        -143.589        0.0331682         127.011
60.68                  0.0295475          125.94         0.999314        -143.839         0.999413        -143.796         0.029973         126.811
60.69                  0.0266703         125.776         0.999391        -144.029         0.999495        -143.986        0.0270953         126.631
60.7                    0.024064         125.629         0.999452        -144.203         0.999562         -144.16        0.0244884         126.467
60.71                  0.0216908           125.5         0.999502        -144.364         0.999616        -144.321        0.0221147         126.318
60.72                  0.0195195         125.387         0.999542        -144.514         0.999661         -144.47        0.0199429         126.182
60.73                  0.0175242         125.289         0.999575        -144.653         0.999698        -144.609        0.0179471         126.059
60.74                  0.0156833         125.206         0.999601        -144.783         0.999729         -144.74        0.0161056         125.947
60.75                  0.0139785         125.138         0.999621        -144.906         0.999754        -144.862        0.0144002         125.845
60.76                  0.0123941         125.088         0.999638        -145.022         0.999775        -144.978        0.0128153         125.755
60.77                   0.010917         125.056          0.99965        -145.131         0.999792        -145.087        0.0113376         125.676
60.78                 0.00953565         125.047          0.99966        -145.235         0.999805        -145.191       0.00995558         125.609
60.79                 0.00824023         125.065         0.999666        -145.335         0.999817         -145.29       0.00865944         125.557
60.8                  0.00702211         125.121         0.999671        -145.429         0.999826        -145.384       0.00744053         125.521
60.81                 0.00587379         125.229         0.999674         -145.52         0.999833        -145.475       0.00629134         125.507
60.82                  0.0047887         125.417         0.999675        -145.607         0.999838        -145.562       0.00520526         125.525
60.83                 0.00376108          125.74         0.999674        -145.691         0.999842        -145.645       0.00417647         125.591
60.84                 0.00278591         126.322         0.999673        -145.771         0.999845        -145.726       0.00319985         125.744
60.85                   0.001859         127.519          0.99967        -145.849         0.999846        -145.804       0.00227084         126.077
60.86                0.000977964         130.905         0.999666        -145.925         0.999847        -145.879       0.00138553          126.91
60.87                0.000176186         168.293         0.999662        -145.998         0.999847        -145.952      0.000541373         130.485
60.88                 0.00069439        -66.8111         0.999657        -146.069         0.999847        -146.023      0.000276851        -67.3444
60.89                 0.00146323        -61.4519         0.999651        -146.138         0.999846        -146.092       0.00104845         -58.735
60.9                  0.00220525        -59.8793         0.999645        -146.206         0.999844        -146.159       0.00179283         -57.523
60.91                 0.00291966        -59.1536         0.999638        -146.271         0.999842        -146.225       0.00250913        -57.0764
60.92                 0.00360809         -58.751         0.999631        -146.336          0.99984        -146.289       0.00319928        -56.8654
60.93                 0.00427236        -58.5053         0.999624        -146.398         0.999837        -146.351       0.00386522        -56.7571
60.94                 0.00491423        -58.3472         0.999616         -146.46         0.999834        -146.413       0.00450875        -56.7023
60.95                 0.00553534        -58.2428         0.999608         -146.52          0.99983        -146.473       0.00513155        -56.6787
60.96                 0.00613721        -58.1735           0.9996        -146.579         0.999827        -146.532       0.00573514        -56.6749
60.97                 0.00672123        -58.1284         0.999591        -146.637         0.999823         -146.59       0.00632094        -56.6841
60.98                 0.00728871        -58.1005         0.999582        -146.695         0.999819        -146.647       0.00689026        -56.7024
60.99                 0.00784086        -58.0853         0.999573        -146.751         0.999814        -146.703        0.0074443        -56.7272
61                    0.00837878        -58.0796         0.999564        -146.806          0.99981        -146.759       0.00798418        -56.7568
61.01                 0.00890352        -58.0812         0.999554        -146.861         0.999806        -146.813       0.00851095          -56.79
61.02                 0.00941606        -58.0885         0.999545        -146.915         0.999801        -146.867       0.00902557         -56.826
61.03                 0.00991728        -58.1003         0.999535        -146.968         0.999796        -146.921       0.00952896        -56.8641
61.04                   0.010408        -58.1158         0.999525        -147.021         0.999791        -146.973         0.010022        -56.9039
61.05                  0.0108892        -58.1342         0.999515        -147.073         0.999786        -147.025        0.0105054         -56.945
61.06                  0.0113613         -58.155         0.999505        -147.124         0.999781        -147.077        0.0109799        -56.9873
61.07                  0.0118253        -58.1778         0.999494        -147.175         0.999776        -147.128        0.0114464        -57.0304
61.08                  0.0122818        -58.2022         0.999484        -147.226         0.999771        -147.179        0.0119053        -57.0742
61.09                  0.0127313         -58.228         0.999473        -147.276         0.999765        -147.229        0.0123575        -57.1187
61.1                   0.0131746         -58.255         0.999462        -147.326          0.99976        -147.279        0.0128034        -57.1637
61.11                  0.0136121        -58.2829         0.999451        -147.375         0.999754        -147.329        0.0132436        -57.2091
61.12                  0.0140444        -58.3117          0.99944        -147.425         0.999749        -147.378        0.0136788         -57.255
61.13                  0.0144721        -58.3412         0.999429        -147.474         0.999743        -147.427        0.0141094        -57.3011
61.14                  0.0148956        -58.3713         0.999418        -147.522         0.999737        -147.476        0.0145359        -57.3476
61.15                  0.0153155         -58.402         0.999406        -147.571         0.999731        -147.524        0.0149588        -57.3944
61.16                  0.0157321        -58.4331         0.999394        -147.619         0.999725        -147.572        0.0153786        -57.4414
61.17                  0.0161461        -58.4647         0.999383        -147.667         0.999719        -147.621        0.0157958        -57.4887
61.18                  0.0165578        -58.4966         0.999371        -147.715         0.999713        -147.669        0.0162108        -57.5363
61.19                  0.0169676        -58.5289         0.999358        -147.762         0.999707        -147.717         0.016624        -57.5841
61.2                    0.017376        -58.5614         0.999346         -147.81           0.9997        -147.765        0.0170358        -57.6321
61.21                  0.0177834        -58.5943         0.999334        -147.857         0.999694        -147.812        0.0174468        -57.6804
61.22                  0.0181902        -58.6274         0.999321        -147.905         0.999687         -147.86        0.0178572        -57.7289
61.23                  0.0185968        -58.6607         0.999308        -147.952          0.99968        -147.908        0.0182676        -57.7777
61.24                  0.0190036        -58.6943         0.999295            -148         0.999673        -147.956        0.0186782        -57.8267
61.25                  0.0194111        -58.7281         0.999282        -148.047         0.999666        -148.003        0.0190896         -57.876
61.26                  0.0198196        -58.7622         0.999269        -148.095         0.999658        -148.051        0.0195021        -57.9256
61.27                  0.0202296        -58.7964         0.999255        -148.142         0.999651        -148.099        0.0199162        -57.9755
61.28                  0.0206414        -58.8309         0.999241         -148.19         0.999643        -148.147        0.0203322        -58.0256
61.29                  0.0210554        -58.8656         0.999227        -148.238         0.999635        -148.196        0.0207505        -58.0762
61.3                   0.0214721        -58.9005         0.999213        -148.285         0.999627        -148.244        0.0211717         -58.127
61.31                   0.021892        -58.9357         0.999199        -148.333         0.999619        -148.292         0.021596        -58.1782
61.32                  0.0223153         -58.971         0.999184        -148.382          0.99961        -148.341         0.022024        -58.2298
61.33                  0.0227427        -59.0067         0.999169         -148.43         0.999601         -148.39         0.022456        -58.2818
61.34                  0.0231744        -59.0426         0.999154        -148.478         0.999592        -148.439        0.0228926        -58.3342
61.35                  0.0236111        -59.0787         0.999139        -148.527         0.999583        -148.489        0.0233342        -58.3871
61.36                  0.0240531        -59.1152         0.999123        -148.576         0.999573        -148.538        0.0237813        -58.4404
61.37                   0.024501        -59.1519         0.999107        -148.626         0.999563        -148.588        0.0242344        -58.4943
61.38                  0.0249553         -59.189         0.999091        -148.676         0.999553        -148.639         0.024694        -58.5486
61.39                  0.0254165        -59.2264         0.999074        -148.726         0.999542         -148.69        0.0251607        -58.6036
61.4                   0.0258852        -59.2641         0.999057        -148.776         0.999531        -148.741         0.025635        -58.6591
61.41                   0.026362        -59.3022          0.99904        -148.827          0.99952        -148.793        0.0261176        -58.7152
61.42                  0.0268475        -59.3407         0.999023        -148.878         0.999508        -148.845        0.0266089         -58.772
61.43                  0.0273424        -59.3796         0.999006         -148.93         0.999496        -148.898        0.0271098        -58.8294
61.44                  0.0278472         -59.419         0.998988        -148.983         0.999483        -148.951        0.0276208        -58.8876
61.45                  0.0283628        -59.4588          0.99897        -149.035         0.999469        -149.005        0.0281428        -58.9466
61.46                  0.0288899        -59.4991         0.998952        -149.089         0.999455         -149.06        0.0286764        -59.0064
61.47                  0.0294293        -59.5399         0.998934        -149.143         0.999441        -149.115        0.0292226        -59.0671
61.48                  0.0299819        -59.5813         0.998915        -149.198         0.999426        -149.171        0.0297821        -59.1287
61.49                  0.0305485        -59.6233         0.998897        -149.254          0.99941        -149.228        0.0303558        -59.1913
61.5                   0.0311303        -59.6658         0.998878         -149.31         0.999393        -149.285        0.0309449         -59.255
61.51                  0.0317281        -59.7091          0.99886        -149.367         0.999376        -149.344        0.0315503        -59.3197
61.52                  0.0323432         -59.753         0.998841        -149.426         0.999357        -149.404        0.0321732        -59.3857
61.53                  0.0329767        -59.7976         0.998823        -149.485         0.999338        -149.464        0.0328147        -59.4529
61.54                    0.03363         -59.843         0.998805        -149.545         0.999318        -149.526        0.0334763        -59.5214
61.55                  0.0343045        -59.8892         0.998788        -149.606         0.999297        -149.589        0.0341593        -59.5914
61.56                  0.0350016        -59.9362         0.998771        -149.669         0.999275        -149.654        0.0348652        -59.6629
61.57                  0.0357231        -59.9841         0.998755        -149.733         0.999251        -149.719        0.0355959        -59.7361
61.58                  0.0364708         -60.033          0.99874        -149.798         0.999226        -149.787        0.0363529         -59.811
61.59                  0.0372466        -60.0827         0.998727        -149.865           0.9992        -149.855        0.0371384        -59.8878
61.6                   0.0380528        -60.1335         0.998715        -149.934         0.999172        -149.926        0.0379545        -59.9667
61.61                  0.0388916        -60.1853         0.998705        -150.005         0.999143        -149.998        0.0388037        -60.0478
61.62                  0.0397658        -60.2382         0.998697        -150.077         0.999112        -150.073        0.0396884        -60.1313
61.63                  0.0406782        -60.2922         0.998692        -150.152         0.999079        -150.149        0.0406117        -60.2174
61.64                  0.0416322        -60.3473          0.99869        -150.229         0.999044        -150.228        0.0415766        -60.3064
61.65                  0.0426313        -60.4035         0.998691        -150.309         0.999006         -150.31        0.0425869        -60.3984
61.66                  0.0436797        -60.4608         0.998695        -150.392         0.998967        -150.394        0.0436465        -60.4939
61.67                   0.044782        -60.5192         0.998702        -150.478         0.998925        -150.481        0.0447599        -60.5932
61.68                  0.0459437        -60.5788         0.998712        -150.568          0.99888        -150.572         0.045932        -60.6967
61.69                  0.0471707        -60.6395         0.998722        -150.663         0.998833        -150.666        0.0471686         -60.805
61.7                   0.0484703        -60.7013          0.99873        -150.762         0.998784        -150.764        0.0484762        -60.9187
61.71                   0.049851        -60.7646         0.998734        -150.866         0.998732        -150.866        0.0498622        -61.0386
61.72                  0.0513227        -60.8295         0.998728        -150.976         0.998679        -150.973        0.0513352        -61.1656
61.73                  0.0528977        -60.8972         0.998709        -151.093         0.998627        -151.086        0.0529052        -61.3009
61.74                  0.0545904        -60.9693         0.998668        -151.216         0.998577        -151.204        0.0545838        -61.4461
61.75                  0.0564187        -61.0493         0.998602        -151.348         0.998537        -151.329        0.0563852         -61.603
61.76                  0.0584028        -61.1434         0.998505        -151.487         0.998521        -151.461        0.0583265         -61.774
61.77                  0.0605645        -61.2605         0.998374        -151.636         0.998562        -151.601        0.0604295        -61.9617
61.78                  0.0629246        -61.4105         0.998207        -151.794         0.998748        -151.754        0.0627232        -62.1684
61.79                  0.0655041        -61.5979         0.998002        -151.965         0.999235        -151.939         0.065251        -62.3928
61.8                   0.0683413        -61.8285         0.997762        -152.149         0.999008        -152.202        0.0680869        -62.6388
61.81                  0.0714463        -62.1096         0.997484         -152.35         0.997539        -152.407        0.0712725        -62.9062
61.82                  0.0748865        -62.4002         0.997167        -152.572         0.996914        -152.603        0.0748585         -63.136
61.83                  0.0787931        -62.6989         0.996803        -152.821         0.996539        -152.837        0.0789006        -63.3364
61.84                  0.0833471        -63.0155         0.996375        -153.107         0.996157        -153.116        0.0835295        -63.5667
61.85                  0.0888438        -63.3689         0.995851        -153.448         0.995682        -153.452        0.0890526        -63.8744
61.86                   0.095832        -63.7933         0.995166        -153.873         0.995035        -153.877         0.096043        -64.2897
61.87                    0.10553          -64.36         0.994163        -154.455         0.994053        -154.459         0.105732        -64.8712
61.88                   0.121462        -65.2707         0.992343        -155.397         0.992229        -155.402         0.121656        -65.8127
61.89                   0.160629        -67.4996         0.986799        -157.686         0.986625        -157.696         0.160838        -68.0959
61.9                     0.98492        -139.024         0.158268         131.543         0.158239         131.532         0.984953        -139.694
61.91                  0.0297477        -61.0033         0.999184        -150.194         0.999223         -150.19        0.0297053         -60.815
61.92                  0.0735441        -62.8029         0.997017         -152.73         0.996981         -152.73        0.0735599        -63.1672
61.93                  0.0938458        -63.8818         0.995379        -153.921         0.995313        -153.921        0.0938865        -64.3251
61.94                   0.109495        -64.7435         0.993845        -154.847         0.993782        -154.845         0.109561        -65.2304
61.95                   0.124561        -65.5857         0.992138        -155.741          0.99212        -155.738         0.124655        -66.1093
61.96                   0.140833        -66.5035          0.99003        -156.707         0.990098        -156.704         0.140956        -67.0636
61.97                   0.159671        -67.5741         0.987239        -157.824         0.987401        -157.826         0.159817        -68.1722