! TOUCHSTONE file generated by CST MICROWAVE STUDIO
! Date and time: Fri Mar  8 11:35:18 2024
! Project name: aire_def.cst
! Parameters = {d=9.1}
! Header version: 2018
! Port assignment regex: !\s*Touchstone port\s*([0-9]+)\s*=\s*(CST MWS port|CST DS port)\s*([0-9]+|Zmin|Zmax)\s*\(\"(.*)\"\)(\s*mode\s*([0-9]+))?.*
! Touchstone port assignment:
! Touchstone port 1 = CST MWS port 1 ("")
! Touchstone port 2 = CST MWS port 2 ("")
# GHz S MA R 376.7
60                   0.000295281        -42.8911         0.999546        -129.415                1        -129.401      0.000222579        -11.1491
60.01                0.000289442        -43.1722         0.999548        -129.436                1        -129.422      0.000216376        -10.3643
60.02                0.000283602        -43.4642          0.99955        -129.458                1        -129.444      0.000210218        -9.53174
60.03                0.000277761        -43.7678         0.999552        -129.479                1        -129.465      0.000204109        -8.64755
60.04                0.000271919        -44.0839         0.999554          -129.5                1        -129.487      0.000198052        -7.70738
60.05                0.000266078        -44.4132         0.999556        -129.521                1        -129.508      0.000192054        -6.70651
60.06                0.000260237        -44.7566         0.999558        -129.542                1         -129.53      0.000186121        -5.63974
60.07                0.000254397        -45.1151          0.99956        -129.564                1        -129.551      0.000180258        -4.50137
60.08                0.000248559        -45.4898         0.999562        -129.585                1        -129.572      0.000174473        -3.28518
60.09                0.000242723        -45.8818         0.999564        -129.606                1        -129.594      0.000168775        -1.98436
60.1                 0.000236891        -46.2924         0.999566        -129.627                1        -129.615      0.000163173       -0.591539
60.11                0.000231063        -46.7231         0.999568        -129.649                1        -129.637      0.000157676        0.901292
60.12                 0.00022524        -47.1752          0.99957         -129.67                1        -129.658      0.000152297         2.50273
60.13                0.000219423        -47.6506         0.999572        -129.691                1        -129.679      0.000147049         4.22194
60.14                0.000213613        -48.1512         0.999574        -129.712                1        -129.701      0.000141946          6.0686
60.15                0.000207812        -48.6789         0.999576        -129.734                1        -129.722      0.000137006         8.05274
60.16                 0.00020202        -49.2362         0.999578        -129.755                1        -129.744      0.000132245         10.1846
60.17                0.000196241        -49.8255          0.99958        -129.776                1        -129.765      0.000127686         12.4741
60.18                0.000190474        -50.4498         0.999582        -129.797                1        -129.787      0.000123349          14.931
60.19                0.000184723        -51.1122         0.999584        -129.819                1        -129.808       0.00011926         17.5636
60.2                 0.000178989        -51.8163         0.999585         -129.84                1        -129.829      0.000115445         20.3785
60.21                0.000173275        -52.5661         0.999587        -129.861                1        -129.851      0.000111932         23.3798
60.22                0.000167584        -53.3662         0.999589        -129.882                1        -129.872      0.000108751         26.5679
60.23                0.000161919        -54.2215         0.999591        -129.903                1        -129.894      0.000105932         29.9384
60.24                0.000156285        -55.1379         0.999593        -129.925                1        -129.915      0.000103504         33.4815
60.25                0.000150684        -56.1218         0.999595        -129.946                1        -129.936      0.000101496          37.181
60.26                0.000145122        -57.1807         0.999597        -129.967                1        -129.958      9.99324e-05         41.0141
60.27                0.000139605        -58.3228         0.999599        -129.988                1        -129.979      9.88354e-05         44.9514
60.28                0.000134138        -59.5577         0.999601         -130.01                1        -130.001      9.82204e-05          48.958
60.29                0.000128731        -60.8962         0.999603        -130.031                1        -130.022      9.80966e-05         52.9951
60.3                  0.00012339        -62.3507         0.999605        -130.052                1        -130.043      9.84658e-05         57.0223
60.31                0.000118128        -63.9352         0.999607        -130.073                1        -130.065      9.93227e-05         60.9994
60.32                0.000112955        -65.6656         0.999609        -130.095                1        -130.086      0.000100655         64.8894
60.33                0.000107886        -67.5599         0.999611        -130.116                1        -130.108      0.000102443         68.6599
60.34                0.000102937        -69.6383         0.999613        -130.137                1        -130.129      0.000104665         72.2847
60.35                9.81283e-05        -71.9234         0.999615        -130.158                1         -130.15      0.000107294         75.7443
60.36                9.34824e-05        -74.4397         0.999617         -130.18                1        -130.172      0.000110299         79.0255
60.37                8.90265e-05        -77.2137         0.999618        -130.201                1        -130.193      0.000113652         82.1215
60.38                8.47919e-05        -80.2729          0.99962        -130.222                1        -130.215      0.000117323         85.0303
60.39                 8.0815e-05        -83.6441         0.999622        -130.243                1        -130.236      0.000121282         87.7542
60.4                 7.71374e-05        -87.3515         0.999624        -130.265                1        -130.257      0.000125502         90.2986
60.41                7.38056e-05        -91.4133         0.999626        -130.286                1        -130.279      0.000129958         92.6712
60.42                7.08701e-05        -95.8373         0.999628        -130.307                1          -130.3      0.000134626         94.8809
60.43                6.83837e-05        -100.616          0.99963        -130.328                1        -130.322      0.000139486         96.9376
60.44                6.63989e-05         -105.72         0.999632         -130.35                1        -130.343      0.000144516         98.8516
60.45                6.49636e-05        -111.098         0.999634        -130.371                1        -130.365      0.000149701         100.633
60.46                6.41166e-05        -116.673         0.999636        -130.392                1        -130.386      0.000155024         102.292
60.47                6.38832e-05        -122.348         0.999637        -130.413                1        -130.407      0.000160472         103.837
60.48                 6.4272e-05        -128.015         0.999639        -130.435                1        -130.429      0.000166032         105.278
60.49                6.52738e-05        -133.568         0.999641        -130.456                1         -130.45      0.000171694         106.622
60.5                 6.68629e-05        -138.911         0.999643        -130.477                1        -130.472      0.000177447         107.879
60.51                6.90003e-05        -143.971         0.999645        -130.498                1        -130.493      0.000183282         109.054
60.52                7.16388e-05          -148.7         0.999647         -130.52                1        -130.514      0.000189193         110.154
60.53                7.47268e-05        -153.072         0.999649        -130.541                1        -130.536      0.000195171         111.185
60.54                7.82126e-05        -157.083         0.999651        -130.562                1        -130.557      0.000201211         112.153
60.55                8.20469e-05        -160.742         0.999653        -130.583                1        -130.579      0.000207307         113.063
60.56                8.61847e-05        -164.067         0.999654        -130.605                1          -130.6      0.000213455         113.918
60.57                9.05855e-05        -167.085         0.999656        -130.626                1        -130.621      0.000219649         114.724
60.58                9.52142e-05        -169.821         0.999658        -130.647                1        -130.643      0.000225886         115.484
60.59                 0.00010004        -172.304          0.99966        -130.669                1        -130.664      0.000232162         116.201
60.6                 0.000105037         -174.56         0.999662         -130.69                1        -130.686      0.000238474         116.879
60.61                0.000110184        -176.612         0.999664        -130.711                1        -130.707      0.000244819          117.52
60.62                 0.00011546        -178.484         0.999666        -130.732                1        -130.728      0.000251194         118.127
60.63                 0.00012085         179.806         0.999667        -130.754                1         -130.75      0.000257597         118.703
60.64                 0.00012634         178.239         0.999669        -130.775                1        -130.771      0.000264026         119.249
60.65                0.000131918         176.799         0.999671        -130.796                1        -130.792      0.000270478         119.767
60.66                0.000137576         175.474         0.999673        -130.817                1        -130.814      0.000276953          120.26
60.67                0.000143303          174.25         0.999675        -130.839                1        -130.835      0.000283447         120.729
60.68                0.000149092         173.117         0.999677         -130.86                1        -130.857       0.00028996         121.175
60.69                0.000154938         172.067         0.999678        -130.881                1        -130.878       0.00029649         121.601
60.7                 0.000160835          171.09          0.99968        -130.902                1        -130.899      0.000303037         122.006
60.71                0.000166777         170.179         0.999682        -130.924                1        -130.921      0.000309597         122.394
60.72                0.000172762         169.328         0.999684        -130.945                1        -130.942      0.000316172         122.763
60.73                0.000178784         168.532         0.999686        -130.966                1        -130.964      0.000322759         123.117
60.74                0.000184842         167.785         0.999688        -130.987                1        -130.985      0.000329358         123.455
60.75                0.000190931         167.083         0.999689        -131.009                1        -131.006      0.000335967         123.778
60.76                0.000197051         166.422         0.999691         -131.03                1        -131.028      0.000342587         124.088
60.77                0.000203197         165.799         0.999693        -131.051                1        -131.049      0.000349215         124.385
60.78                 0.00020937          165.21         0.999695        -131.072                1        -131.071      0.000355853         124.669
60.79                0.000215566         164.652         0.999697        -131.094                1        -131.092      0.000362497         124.942
60.8                 0.000221784         164.124         0.999698        -131.115                1        -131.113       0.00036915         125.204
60.81                0.000228023         163.622           0.9997        -131.136                1        -131.135      0.000375808         125.455
60.82                0.000234281         163.145         0.999702        -131.158                1        -131.156      0.000382473         125.697
60.83                0.000240557         162.691         0.999704        -131.179                1        -131.178      0.000389143         125.929
60.84                0.000246851         162.258         0.999706          -131.2                1        -131.199      0.000395819         126.152
60.85                0.000253161         161.844         0.999707        -131.221                1         -131.22      0.000402499         126.367
60.86                0.000259487         161.449         0.999709        -131.243                1        -131.242      0.000409183         126.574
60.87                0.000265827         161.071         0.999711        -131.264                1        -131.263      0.000415871         126.773
60.88                0.000272181         160.709         0.999713        -131.285                1        -131.284      0.000422562         126.964
60.89                0.000278549         160.361         0.999715        -131.306                1        -131.306      0.000429256         127.149
60.9                 0.000284929         160.028         0.999716        -131.328                1        -131.327      0.000435953         127.327
60.91                0.000291321         159.707         0.999718        -131.349                1        -131.349      0.000442653         127.498
60.92                0.000297724         159.399          0.99972         -131.37                1         -131.37      0.000449354         127.664
60.93                0.000304139         159.101         0.999722        -131.392                1        -131.391      0.000456057         127.823
60.94                0.000310564         158.815         0.999723        -131.413                1        -131.413      0.000462761         127.977
60.95                0.000316999         158.539         0.999725        -131.434                1        -131.434      0.000469467         128.126
60.96                0.000323444         158.272         0.999727        -131.455                1        -131.456      0.000476173         128.269
60.97                0.000329899         158.014         0.999729        -131.477                1        -131.477       0.00048288         128.408
60.98                0.000336363         157.765          0.99973        -131.498                1        -131.498      0.000489587         128.542
60.99                0.000342835         157.523         0.999732        -131.519                1         -131.52      0.000496295         128.671
61                   0.000349316         157.289         0.999734         -131.54                1        -131.541      0.000503002         128.796
61.01                0.000355805         157.063         0.999736        -131.562                1        -131.562      0.000509709         128.917
61.02                0.000362302         156.843         0.999737        -131.583                1        -131.584      0.000516415         129.033
61.03                0.000368806         156.629         0.999739        -131.604                1        -131.605      0.000523121         129.146
61.04                0.000375318         156.422         0.999741        -131.626                1        -131.627      0.000529826         129.255
61.05                0.000381837          156.22         0.999743        -131.647                1        -131.648       0.00053653         129.361
61.06                0.000388363         156.024         0.999744        -131.668                1        -131.669      0.000543232         129.463
61.07                0.000394895         155.833         0.999746        -131.689                1        -131.691      0.000549933         129.562
61.08                0.000401434         155.647         0.999748        -131.711                1        -131.712      0.000556632         129.657
61.09                0.000407979         155.466          0.99975        -131.732                1        -131.734      0.000563329          129.75
61.1                 0.000414531         155.289         0.999751        -131.753                1        -131.755      0.000570025         129.839
61.11                0.000421088         155.117         0.999753        -131.774                1        -131.776      0.000576718         129.926
61.12                0.000427651         154.948         0.999755        -131.796                1        -131.798      0.000583409          130.01
61.13                0.000434219         154.784         0.999756        -131.817                1        -131.819      0.000590097         130.091
61.14                0.000440793         154.624         0.999758        -131.838                1         -131.84      0.000596783         130.169
61.15                0.000447373         154.467          0.99976         -131.86                1        -131.862      0.000603465         130.245
61.16                0.000453957         154.313         0.999762        -131.881                1        -131.883      0.000610145         130.318
61.17                0.000460546         154.163         0.999763        -131.902                1        -131.905      0.000616822          130.39
61.18                 0.00046714         154.016         0.999765        -131.923                1        -131.926      0.000623496         130.458
61.19                0.000473739         153.872         0.999767        -131.945                1        -131.947      0.000630166         130.525
61.2                 0.000480342         153.731         0.999768        -131.966                1        -131.969      0.000636833          130.59
61.21                 0.00048695         153.592          0.99977        -131.987                1         -131.99      0.000643496         130.652
61.22                0.000493562         153.457         0.999772        -132.009                1        -132.011      0.000650156         130.712
61.23                0.000500177         153.324         0.999773         -132.03                1        -132.033      0.000656811         130.771
61.24                0.000506797         153.193         0.999775        -132.051                1        -132.054      0.000663463         130.827
61.25                0.000513421         153.065         0.999777        -132.072                1        -132.076       0.00067011         130.882
61.26                0.000520049         152.939         0.999779        -132.094                1        -132.097      0.000676753         130.935
61.27                 0.00052668         152.815          0.99978        -132.115                1        -132.118      0.000683392         130.986
61.28                0.000533314         152.693         0.999782        -132.136                1         -132.14      0.000690027         131.036
61.29                0.000539952         152.573         0.999784        -132.158                1        -132.161      0.000696656         131.084
61.3                 0.000546594         152.456         0.999785        -132.179                1        -132.182      0.000703281          131.13
61.31                0.000553238          152.34         0.999787          -132.2                1        -132.204      0.000709901         131.175
61.32                0.000559885         152.226         0.999789        -132.221                1        -132.225      0.000716516         131.218
61.33                0.000566536         152.114          0.99979        -132.243                1        -132.246      0.000723127          131.26
61.34                0.000573189         152.003         0.999792        -132.264                1        -132.268      0.000729731           131.3
61.35                0.000579845         151.894         0.999794        -132.285                1        -132.289      0.000736331         131.339
61.36                0.000586503         151.787         0.999795        -132.307                1        -132.311      0.000742925         131.377
61.37                0.000593164         151.681         0.999797        -132.328                1        -132.332      0.000749514         131.413
61.38                0.000599827         151.577         0.999798        -132.349                1        -132.353      0.000756097         131.448
61.39                0.000606493         151.474           0.9998         -132.37                1        -132.375      0.000762674         131.482
61.4                  0.00061316         151.372         0.999802        -132.392                1        -132.396      0.000769245         131.514
61.41                 0.00061983         151.272         0.999803        -132.413                1        -132.417      0.000775811         131.546
61.42                0.000626502         151.173         0.999805        -132.434                1        -132.439       0.00078237         131.576
61.43                0.000633175         151.075         0.999807        -132.456                1         -132.46      0.000788924         131.605
61.44                 0.00063985         150.979         0.999808        -132.477                1        -132.481      0.000795471         131.633
61.45                0.000646527         150.884          0.99981        -132.498                1        -132.503      0.000802011          131.66
61.46                0.000653205         150.789         0.999812        -132.519                1        -132.524      0.000808545         131.686
61.47                0.000659885         150.696         0.999813        -132.541                1        -132.546      0.000815073         131.711
61.48                0.000666566         150.604         0.999815        -132.562                1        -132.567      0.000821594         131.734
61.49                0.000673248         150.513         0.999816        -132.583                1        -132.588      0.000828108         131.757
61.5                 0.000679932         150.423         0.999818        -132.605                1         -132.61      0.000834615         131.779
61.51                0.000686616         150.334          0.99982        -132.626                1        -132.631      0.000841115           131.8
61.52                0.000693301         150.246         0.999821        -132.647                1        -132.652      0.000847608          131.82
61.53                0.000699987         150.159         0.999823        -132.668                1        -132.674      0.000854094          131.84
61.54                0.000706673         150.072         0.999824         -132.69                1        -132.695      0.000860572         131.858
61.55                0.000713361         149.987         0.999826        -132.711                1        -132.716      0.000867044         131.875
61.56                0.000720048         149.902         0.999828        -132.732                1        -132.738      0.000873507         131.892
61.57                0.000726736         149.818         0.999829        -132.754                1        -132.759      0.000879963         131.908
61.58                0.000733424         149.735         0.999831        -132.775                1         -132.78      0.000886412         131.923
61.59                0.000740113         149.653         0.999832        -132.796                1        -132.802      0.000892852         131.937
61.6                 0.000746801         149.571         0.999834        -132.817                1        -132.823      0.000899285         131.951
61.61                0.000753489          149.49         0.999836        -132.839                1        -132.845      0.000905709         131.963
61.62                0.000760178          149.41         0.999837         -132.86                1        -132.866      0.000912126         131.976
61.63                0.000766865          149.33         0.999839        -132.881                1        -132.887      0.000918534         131.987
61.64                0.000773553         149.252          0.99984        -132.903                1        -132.909      0.000924934         131.997
61.65                 0.00078024         149.173         0.999842        -132.924                1         -132.93      0.000931326         132.007
61.66                0.000786926         149.096         0.999844        -132.945                1        -132.951      0.000937709         132.017
61.67                0.000793612         149.019         0.999845        -132.967                1        -132.973      0.000944084         132.025
61.68                0.000800296         148.942         0.999847        -132.988                1        -132.994       0.00095045         132.033
61.69                 0.00080698         148.866         0.999848        -133.009                1        -133.015      0.000956807         132.041
61.7                 0.000813663         148.791          0.99985         -133.03                1        -133.037      0.000963155         132.047
61.71                0.000820345         148.716         0.999851        -133.052                1        -133.058      0.000969494         132.053
61.72                0.000827025         148.642         0.999853        -133.073                1        -133.079      0.000975824         132.059
61.73                0.000833704         148.568         0.999854        -133.094                1        -133.101      0.000982145         132.064
61.74                0.000840382         148.495         0.999856        -133.116                1        -133.122      0.000988457         132.068
61.75                0.000847058         148.422         0.999858        -133.137                1        -133.143      0.000994759         132.072
61.76                0.000853732          148.35         0.999859        -133.158                1        -133.165       0.00100105         132.075
61.77                0.000860404         148.278         0.999861        -133.179                1        -133.186       0.00100733         132.078
61.78                0.000867075         148.207         0.999862        -133.201                1        -133.207       0.00101361          132.08
61.79                0.000873743         148.136         0.999864        -133.222                1        -133.229       0.00101987         132.082
61.8                  0.00088041         148.066         0.999865        -133.243                1         -133.25       0.00102613         132.083
61.81                0.000887074         147.995         0.999867        -133.265                1        -133.272       0.00103237         132.083
61.82                0.000893735         147.926         0.999868        -133.286                1        -133.293        0.0010386         132.084
61.83                0.000900395         147.856          0.99987        -133.307                1        -133.314       0.00104483         132.083
61.84                0.000907051         147.788         0.999871        -133.329                1        -133.336       0.00105104         132.082
61.85                0.000913705         147.719         0.999873         -133.35                1        -133.357       0.00105724         132.081
61.86                0.000920356         147.651         0.999874        -133.371                1        -133.378       0.00106344         132.079
61.87                0.000927004         147.583         0.999876        -133.392                1          -133.4       0.00106962         132.077
61.88                0.000933649         147.516         0.999877        -133.414                1        -133.421       0.00107579         132.074
61.89                 0.00094029         147.448         0.999879        -133.435                1        -133.442       0.00108195         132.071
61.9                 0.000946929         147.382          0.99988        -133.456                1        -133.464        0.0010881         132.068
61.91                0.000953564         147.315         0.999882        -133.478                1        -133.485       0.00109424         132.064
61.92                0.000960195         147.249         0.999883        -133.499                1        -133.506       0.00110037          132.06
61.93                0.000966823         147.183         0.999885         -133.52                1        -133.528       0.00110648         132.055
61.94                0.000973447         147.118         0.999886        -133.542                1        -133.549       0.00111259          132.05
61.95                0.000980067         147.052         0.999888        -133.563                1         -133.57       0.00111868         132.044
61.96                0.000986683         146.987         0.999889        -133.584                1        -133.592       0.00112476         132.038
61.97                0.000993294         146.923         0.999891        -133.605                1        -133.613       0.00113083         132.032