! TOUCHSTONE file generated by CST MICROWAVE STUDIO
! Date and time: Fri Mar  8 11:35:16 2024
! Project name: aire_def.cst
! Parameters = {d=9.05}
! Header version: 2018
! Port assignment regex: !\s*Touchstone port\s*([0-9]+)\s*=\s*(CST MWS port|CST DS port)\s*([0-9]+|Zmin|Zmax)\s*\(\"(.*)\"\)(\s*mode\s*([0-9]+))?.*
! Touchstone port assignment:
! Touchstone port 1 = CST MWS port 1 ("")
! Touchstone port 2 = CST MWS port 2 ("")
# GHz S MA R 376.7
60                   0.000397574         -70.731         0.999634        -136.618                1        -136.607      0.000298031        -4.76398
60.01                0.000392276        -71.3692         0.999636        -136.641                1        -136.629      0.000293428        -3.97428
60.02                0.000387014        -72.0239         0.999637        -136.663                1        -136.652      0.000288884        -3.15854
60.03                0.000381791        -72.6956         0.999638        -136.686                1        -136.674      0.000284402        -2.31586
60.04                0.000376609        -73.3849          0.99964        -136.708                1        -136.696      0.000279984        -1.44534
60.05                0.000371469        -74.0923         0.999641        -136.731                1        -136.719      0.000275634        -0.54606
60.06                0.000366373        -74.8185         0.999642        -136.753                1        -136.741      0.000271355        0.382894
60.07                0.000361325        -75.5641         0.999644        -136.775                1        -136.764      0.000267151         1.34243
60.08                0.000356326        -76.3298         0.999645        -136.798                1        -136.786      0.000263026         2.33344
60.09                0.000351378        -77.1161         0.999646         -136.82                1        -136.808      0.000258984         3.35681
60.1                 0.000346485        -77.9238         0.999647        -136.843                1        -136.831      0.000255029         4.41337
60.11                0.000341649        -78.7535         0.999649        -136.865                1        -136.853      0.000251166         5.50394
60.12                0.000336872        -79.6059          0.99965        -136.888                1        -136.876      0.000247398         6.62927
60.13                0.000332159        -80.4817         0.999651         -136.91                1        -136.898      0.000243731         7.79005
60.14                 0.00032751        -81.3816         0.999653        -136.933                1        -136.921      0.000240169         8.98689
60.15                0.000322931        -82.3063         0.999654        -136.955                1        -136.943      0.000236717         10.2203
60.16                0.000318425        -83.2564         0.999655        -136.977                1        -136.965      0.000233381         11.4907
60.17                0.000313993        -84.2326         0.999656            -137                1        -136.988      0.000230166         12.7984
60.18                0.000309642        -85.2356         0.999658        -137.022                1         -137.01      0.000227077         14.1435
60.19                0.000305373         -86.266         0.999659        -137.045                1        -137.033       0.00022412          15.526
60.2                 0.000301192        -87.3245          0.99966        -137.067                1        -137.055      0.000221299         16.9457
60.21                0.000297101        -88.4116         0.999662         -137.09                1        -137.078      0.000218621         18.4021
60.22                0.000293106        -89.5278         0.999663        -137.112                1          -137.1      0.000216091         19.8948
60.23                 0.00028921        -90.6737         0.999664        -137.135                1        -137.122      0.000213715         21.4227
60.24                0.000285419        -91.8497         0.999665        -137.157                1        -137.145      0.000211498         22.9848
60.25                0.000281735        -93.0562         0.999667        -137.179                1        -137.167      0.000209445         24.5798
60.26                0.000278166        -94.2935         0.999668        -137.202                1         -137.19      0.000207561         26.2059
60.27                0.000274714        -95.5617         0.999669        -137.224                1        -137.212      0.000205852         27.8614
60.28                0.000271385        -96.8609          0.99967        -137.247                1        -137.234      0.000204321          29.544
60.29                0.000268184        -98.1913         0.999672        -137.269                1        -137.257      0.000202973         31.2514
60.3                 0.000265116        -99.5525         0.999673        -137.292                1        -137.279      0.000201813         32.9807
60.31                0.000262185        -100.944         0.999674        -137.314                1        -137.302      0.000200842         34.7292
60.32                0.000259398        -102.367         0.999675        -137.337                1        -137.324      0.000200065         36.4937
60.33                0.000256758        -103.819         0.999677        -137.359                1        -137.347      0.000199484         38.2709
60.34                0.000254271          -105.3         0.999678        -137.382                1        -137.369        0.0001991         40.0572
60.35                0.000251942        -106.809         0.999679        -137.404                1        -137.391      0.000198915         41.8493
60.36                0.000249776        -108.344          0.99968        -137.426                1        -137.414       0.00019893         43.6434
60.37                0.000247776        -109.906         0.999682        -137.449                1        -137.436      0.000199145         45.4358
60.38                0.000245948        -111.492         0.999683        -137.471                1        -137.459      0.000199559          47.223
60.39                0.000244296        -113.101         0.999684        -137.494                1        -137.481      0.000200171         49.0014
60.4                 0.000242823         -114.73         0.999685        -137.516                1        -137.504       0.00020098         50.7674
60.41                0.000241534        -116.379         0.999687        -137.539                1        -137.526      0.000201983         52.5179
60.42                0.000240431        -118.044         0.999688        -137.561                1        -137.548      0.000203178         54.2495
60.43                0.000239517        -119.723         0.999689        -137.584                1        -137.571      0.000204562         55.9594
60.44                0.000238796        -121.415          0.99969        -137.606                1        -137.593       0.00020613         57.6448
60.45                0.000238268        -123.116         0.999692        -137.629                1        -137.616      0.000207879         59.3033
60.46                0.000237935        -124.823         0.999693        -137.651                1        -137.638      0.000209804         60.9327
60.47                  0.0002378        -126.535         0.999694        -137.674                1        -137.661        0.0002119          62.531
60.48                0.000237861        -128.249         0.999695        -137.696                1        -137.683      0.000214164         64.0967
60.49                 0.00023812         -129.96         0.999696        -137.718                1        -137.706      0.000216589         65.6282
60.5                 0.000238576        -131.668         0.999698        -137.741                1        -137.728       0.00021917         67.1244
60.51                0.000239227        -133.369         0.999699        -137.763                1         -137.75      0.000221902         68.5845
60.52                0.000240074         -135.06           0.9997        -137.786                1        -137.773      0.000224779         70.0079
60.53                0.000241113         -136.74         0.999701        -137.808                1        -137.795      0.000227797         71.3939
60.54                0.000242343        -138.405         0.999703        -137.831                1        -137.818      0.000230949         72.7426
60.55                0.000243761        -140.053         0.999704        -137.853                1         -137.84       0.00023423         74.0537
60.56                0.000245364        -141.683         0.999705        -137.876                1        -137.863      0.000237635         75.3274
60.57                0.000247148        -143.291         0.999706        -137.898                1        -137.885      0.000241159         76.5641
60.58                0.000249111        -144.877         0.999707        -137.921                1        -137.907      0.000244797          77.764
60.59                0.000251247        -146.439         0.999709        -137.943                1         -137.93      0.000248543         78.9276
60.6                 0.000253552        -147.975          0.99971        -137.966                1        -137.952      0.000252393         80.0557
60.61                0.000256023        -149.484         0.999711        -137.988                1        -137.975      0.000256342         81.1488
60.62                0.000258655        -150.966         0.999712        -138.011                1        -137.997      0.000260386         82.2077
60.63                0.000261442        -152.418         0.999713        -138.033                1         -138.02      0.000264521         83.2332
60.64                0.000264381        -153.841         0.999715        -138.055                1        -138.042      0.000268741         84.2262
60.65                0.000267465        -155.233         0.999716        -138.078                1        -138.065      0.000273044         85.1875
60.66                0.000270691        -156.596         0.999717          -138.1                1        -138.087      0.000277425          86.118
60.67                0.000274054        -157.927         0.999718        -138.123                1        -138.109      0.000281881         87.0186
60.68                0.000277548        -159.227         0.999719        -138.145                1        -138.132      0.000286408         87.8903
60.69                0.000281169        -160.497         0.999721        -138.168                1        -138.154      0.000291003         88.7339
60.7                 0.000284911        -161.735         0.999722         -138.19                1        -138.177      0.000295663         89.5504
60.71                0.000288772        -162.943         0.999723        -138.213                1        -138.199      0.000300384         90.3406
60.72                0.000292745        -164.121         0.999724        -138.235                1        -138.222      0.000305165         91.1055
60.73                0.000296826        -165.269         0.999725        -138.258                1        -138.244      0.000310001         91.8459
60.74                0.000301011        -166.387         0.999726         -138.28                1        -138.267      0.000314891         92.5627
60.75                0.000305296        -167.477         0.999728        -138.303                1        -138.289      0.000319831         93.2566
60.76                0.000309676        -168.538         0.999729        -138.325                1        -138.312       0.00032482         93.9286
60.77                0.000314148        -169.571          0.99973        -138.348                1        -138.334      0.000329856         94.5795
60.78                0.000318708        -170.577         0.999731         -138.37                1        -138.356      0.000334936         95.2099
60.79                0.000323351        -171.556         0.999732        -138.393                1        -138.379      0.000340057         95.8206
60.8                 0.000328076        -172.509         0.999733        -138.415                1        -138.401      0.000345219         96.4123
60.81                0.000332877        -173.438         0.999735        -138.438                1        -138.424       0.00035042         96.9858
60.82                0.000337752        -174.341         0.999736         -138.46                1        -138.446      0.000355657         97.5417
60.83                0.000342697        -175.221         0.999737        -138.482                1        -138.469      0.000360929         98.0807
60.84                 0.00034771        -176.077         0.999738        -138.505                1        -138.491      0.000366234         98.6033
60.85                0.000352788        -176.911         0.999739        -138.527                1        -138.514      0.000371571         99.1102
60.86                0.000357927        -177.723          0.99974         -138.55                1        -138.536      0.000376939         99.6019
60.87                0.000363126        -178.514         0.999742        -138.572                1        -138.559      0.000382336         100.079
60.88                0.000368381        -179.285         0.999743        -138.595                1        -138.581       0.00038776         100.542
60.89                 0.00037369         179.965         0.999744        -138.617                1        -138.603      0.000393212         100.992
60.9                 0.000379051         179.233         0.999745         -138.64                1        -138.626      0.000398688         101.428
60.91                0.000384461          178.52         0.999746        -138.662                1        -138.648      0.000404189         101.852
60.92                0.000389919         177.825         0.999747        -138.685                1        -138.671      0.000409713         102.263
60.93                0.000395423         177.148         0.999748        -138.707                1        -138.693      0.000415259         102.663
60.94                0.000400969         176.487          0.99975         -138.73                1        -138.716      0.000420827         103.052
60.95                0.000406557         175.843         0.999751        -138.752                1        -138.738      0.000426414          103.43
60.96                0.000412185         175.214         0.999752        -138.775                1        -138.761      0.000432021         103.797
60.97                0.000417851         174.601         0.999753        -138.797                1        -138.783      0.000437647         104.154
60.98                0.000423553         174.002         0.999754         -138.82                1        -138.806       0.00044329         104.501
60.99                 0.00042929         173.417         0.999755        -138.842                1        -138.828       0.00044895         104.839
61                   0.000435061         172.846         0.999756        -138.865                1         -138.85      0.000454627         105.168
61.01                0.000440863         172.289         0.999758        -138.887                1        -138.873      0.000460319         105.488
61.02                0.000446696         171.744         0.999759         -138.91                1        -138.895      0.000466025         105.799
61.03                0.000452558         171.211          0.99976        -138.932                1        -138.918      0.000471746         106.102
61.04                0.000458448         170.691         0.999761        -138.955                1         -138.94      0.000477481         106.397
61.05                0.000464364         170.182         0.999762        -138.977                1        -138.963      0.000483228         106.684
61.06                0.000470307         169.684         0.999763            -139                1        -138.985      0.000488988         106.964
61.07                0.000476273         169.197         0.999764        -139.022                1        -139.008      0.000494759         107.237
61.08                0.000482264          168.72         0.999765        -139.045                1         -139.03      0.000500542         107.502
61.09                0.000488276         168.254         0.999766        -139.067                1        -139.053      0.000506335         107.761
61.1                  0.00049431         167.797         0.999768         -139.09                1        -139.075      0.000512139         108.014
61.11                0.000500365          167.35         0.999769        -139.112                1        -139.098      0.000517953          108.26
61.12                0.000506438         166.912          0.99977        -139.134                1         -139.12      0.000523775           108.5
61.13                0.000512531         166.483         0.999771        -139.157                1        -139.143      0.000529607         108.734
61.14                0.000518642         166.062         0.999772        -139.179                1        -139.165      0.000535447         108.962
61.15                0.000524769          165.65         0.999773        -139.202                1        -139.187      0.000541295         109.185
61.16                0.000530913         165.245         0.999774        -139.224                1         -139.21      0.000547151         109.402
61.17                0.000537073         164.849         0.999775        -139.247                1        -139.232      0.000553014         109.614
61.18                0.000543247          164.46         0.999776        -139.269                1        -139.255      0.000558883         109.821
61.19                0.000549436         164.078         0.999777        -139.292                1        -139.277       0.00056476         110.022
61.2                 0.000555637         163.704         0.999779        -139.314                1          -139.3      0.000570642          110.22
61.21                0.000561852         163.336          0.99978        -139.337                1        -139.322       0.00057653         110.412
61.22                0.000568079         162.975         0.999781        -139.359                1        -139.345      0.000582424           110.6
61.23                0.000574318          162.62         0.999782        -139.382                1        -139.367      0.000588323         110.783
61.24                0.000580567         162.272         0.999783        -139.404                1         -139.39      0.000594227         110.963
61.25                0.000586827         161.929         0.999784        -139.427                1        -139.412      0.000600135         111.138
61.26                0.000593097         161.593         0.999785        -139.449                1        -139.435      0.000606048         111.309
61.27                0.000599376         161.262         0.999786        -139.472                1        -139.457      0.000611964         111.476
61.28                0.000605665         160.937         0.999787        -139.494                1         -139.48      0.000617885         111.639
61.29                0.000611961         160.617         0.999788        -139.517                1        -139.502      0.000623808         111.799
61.3                 0.000618266         160.302         0.999789        -139.539                1        -139.525      0.000629735         111.955
61.31                0.000624578         159.993          0.99979        -139.562                1        -139.547      0.000635665         112.108
61.32                0.000630896         159.688         0.999792        -139.584                1        -139.569      0.000641598         112.257
61.33                0.000637222         159.388         0.999793        -139.607                1        -139.592      0.000647532         112.402
61.34                0.000643553         159.093         0.999794        -139.629                1        -139.614       0.00065347         112.545
61.35                0.000649891         158.802         0.999795        -139.652                1        -139.637      0.000659409         112.684
61.36                0.000656233         158.516         0.999796        -139.674                1        -139.659      0.000665349         112.821
61.37                0.000662581         158.234         0.999797        -139.697                1        -139.682      0.000671292         112.954
61.38                0.000668933         157.956         0.999798        -139.719                1        -139.704      0.000677236         113.084
61.39                0.000675289         157.682         0.999799        -139.742                1        -139.727       0.00068318         113.212
61.4                 0.000681649         157.412           0.9998        -139.764                1        -139.749      0.000689126         113.337
61.41                0.000688012         157.146         0.999801        -139.787                1        -139.772      0.000695072         113.459
61.42                0.000694378         156.884         0.999802        -139.809                1        -139.794      0.000701019         113.578
61.43                0.000700748         156.625         0.999803        -139.832                1        -139.817      0.000706966         113.695
61.44                0.000707119          156.37         0.999804        -139.854                1        -139.839      0.000712913          113.81
61.45                0.000713493         156.118         0.999805        -139.877                1        -139.862      0.000718861         113.922
61.46                0.000719868         155.869         0.999806        -139.899                1        -139.884      0.000724807         114.031
61.47                0.000726245         155.624         0.999807        -139.922                1        -139.907      0.000730754         114.138
61.48                0.000732624         155.382         0.999808        -139.944                1        -139.929        0.0007367         114.243
61.49                0.000739003         155.143         0.999809        -139.967                1        -139.952      0.000742645         114.346
61.5                 0.000745382         154.907          0.99981        -139.989                1        -139.974      0.000748589         114.447
61.51                0.000751762         154.674         0.999811        -140.012                1        -139.997      0.000754532         114.545
61.52                0.000758142         154.444         0.999813        -140.034                1        -140.019      0.000760473         114.641
61.53                0.000764522         154.217         0.999814        -140.057                1        -140.042      0.000766414         114.736
61.54                0.000770901         153.992         0.999815        -140.079                1        -140.064      0.000772352         114.828
61.55                0.000777279         153.771         0.999816        -140.102                1        -140.086      0.000778289         114.919
61.56                0.000783656         153.551         0.999817        -140.124                1        -140.109      0.000784224         115.007
61.57                0.000790032         153.335         0.999818        -140.147                1        -140.131      0.000790156         115.094
61.58                0.000796407          153.12         0.999819        -140.169                1        -140.154      0.000796087         115.179
61.59                0.000802779         152.909          0.99982        -140.192                1        -140.176      0.000802015         115.262
61.6                  0.00080915         152.699         0.999821        -140.214                1        -140.199       0.00080794         115.343
61.61                0.000815518         152.492         0.999822        -140.237                1        -140.221      0.000813863         115.423
61.62                0.000821884         152.287         0.999823        -140.259                1        -140.244      0.000819783         115.501
61.63                0.000828247         152.084         0.999824        -140.282                1        -140.266        0.0008257         115.578
61.64                0.000834607         151.884         0.999825        -140.304                1        -140.289      0.000831614         115.653
61.65                0.000840964         151.685         0.999826        -140.327                1        -140.311      0.000837525         115.726
61.66                0.000847318         151.489         0.999827        -140.349                1        -140.334      0.000843432         115.798
61.67                0.000853668         151.295         0.999828        -140.372                1        -140.356      0.000849335         115.868
61.68                0.000860014         151.102         0.999829        -140.394                1        -140.379      0.000855235         115.937
61.69                0.000866355         150.912          0.99983        -140.417                1        -140.401      0.000861132         116.005
61.7                 0.000872693         150.723         0.999831        -140.439                1        -140.424      0.000867024         116.071
61.71                0.000879026         150.536         0.999832        -140.462                1        -140.446      0.000872912         116.135
61.72                0.000885355         150.352         0.999833        -140.484                1        -140.469      0.000878796         116.199
61.73                0.000891678         150.168         0.999834        -140.507                1        -140.491      0.000884675         116.261
61.74                0.000897997         149.987         0.999835        -140.529                1        -140.514      0.000890551         116.321
61.75                 0.00090431         149.807         0.999836        -140.552                1        -140.536      0.000896421         116.381
61.76                0.000910618         149.629         0.999837        -140.574                1        -140.559      0.000902287         116.439
61.77                 0.00091692         149.453         0.999838        -140.597                1        -140.581      0.000908148         116.496
61.78                0.000923216         149.278         0.999839        -140.619                1        -140.604      0.000914004         116.552
61.79                0.000929506         149.105          0.99984        -140.642                1        -140.626      0.000919854         116.607
61.8                  0.00093579         148.933         0.999841        -140.664                1        -140.649        0.0009257          116.66
61.81                0.000942067         148.762         0.999842        -140.687                1        -140.671       0.00093154         116.713
61.82                0.000948338         148.594         0.999843        -140.709                1        -140.694      0.000937375         116.764
61.83                0.000954602         148.426         0.999844        -140.732                1        -140.716      0.000943204         116.814
61.84                0.000960859          148.26         0.999845        -140.754                1        -140.739      0.000949027         116.863
61.85                0.000967109         148.096         0.999846        -140.777                1        -140.761      0.000954845         116.912
61.86                0.000973351         147.932         0.999846        -140.799                1        -140.784      0.000960656         116.959
61.87                0.000979586         147.771         0.999847        -140.822                1        -140.806      0.000966462         117.005
61.88                0.000985814          147.61         0.999848        -140.844                1        -140.829      0.000972261          117.05
61.89                0.000992033         147.451         0.999849        -140.867                1        -140.851      0.000978054         117.094
61.9                 0.000998244         147.293          0.99985        -140.889                1        -140.874      0.000983841         117.137
61.91                 0.00100445         147.136         0.999851        -140.912                1        -140.896      0.000989621          117.18
61.92                 0.00101064          146.98         0.999852        -140.934                1        -140.919      0.000995394         117.221
61.93                 0.00101683         146.826         0.999853        -140.957                1        -140.941       0.00100116         117.261
61.94                 0.00102301         146.673         0.999854         -140.98                1        -140.964       0.00100692         117.301
61.95                 0.00102917          146.52         0.999855        -141.002                1        -140.986       0.00101267          117.34
61.96                 0.00103533         146.369         0.999856        -141.025                1        -141.009       0.00101842         117.378
61.97                 0.00104148          146.22         0.999857        -141.047                1        -141.031       0.00102416         117.415