! TOUCHSTONE file generated by CST MICROWAVE STUDIO
! Date and time: Wed Feb 28 00:11:49 2024
! Project name: aire_des.cst
! Header version: 2018
! Port assignment regex: !\s*Touchstone port\s*([0-9]+)\s*=\s*(CST MWS port|CST DS port)\s*([0-9]+|Zmin|Zmax)\s*\(\"(.*)\"\)(\s*mode\s*([0-9]+))?.*
! Touchstone port assignment:
! Touchstone port 1 = CST MWS port 1 ("")
! Touchstone port 2 = CST MWS port 2 ("")
# GHz S MA R 376.7
60                      0.083511        -57.9994         0.996692        -148.361         0.996445        -148.355        0.0834499        -58.7719
60.01                  0.0845963        -58.0872         0.996609        -148.451         0.996356        -148.445        0.0845454        -58.8664
60.02                  0.0857303         -58.178         0.996521        -148.544         0.996262        -148.537        0.0856894        -58.9637
60.03                  0.0869163        -58.2722         0.996426         -148.64         0.996163        -148.633        0.0868854        -59.0638
60.04                   0.088158        -58.3698         0.996326         -148.74         0.996056        -148.732         0.088137         -59.167
60.05                  0.0894594        -58.4712         0.996218        -148.842         0.995943        -148.834        0.0894483        -59.2735
60.06                  0.0908251        -58.5765         0.996102        -148.949         0.995822         -148.94        0.0908238        -59.3836
60.07                  0.0922599        -58.6862         0.995978        -149.059         0.995693         -149.05        0.0922683        -59.4976
60.08                  0.0937692        -58.8004         0.995845        -149.173         0.995555        -149.164        0.0937872        -59.6157
60.09                  0.0953592        -58.9195         0.995702        -149.292         0.995407        -149.282        0.0953867        -59.7384
60.1                   0.0970363         -59.044         0.995548        -149.416         0.995247        -149.406        0.0970733        -59.8659
60.11                  0.0988083        -59.1742         0.995381        -149.546         0.995076        -149.535        0.0988546        -59.9987
60.12                   0.100683        -59.3107         0.995201        -149.681          0.99489         -149.67         0.100739        -60.1374
60.13                   0.102671         -59.454         0.995005        -149.823          0.99469        -149.812         0.102735        -60.2824
60.14                   0.104781        -59.6047         0.994793        -149.972         0.994473         -149.96         0.104855        -60.4344
60.15                   0.107026        -59.7635         0.994562        -150.129         0.994236        -150.117         0.107109        -60.5939
60.16                   0.109419        -59.9311         0.994309        -150.294         0.993979        -150.281         0.109511        -60.7619
60.17                   0.111976        -60.1086         0.994032        -150.469         0.993697        -150.456         0.112077        -60.9392
60.18                   0.114714        -60.2968         0.993728        -150.654         0.993388         -150.64         0.114824        -61.1268
60.19                   0.117653        -60.4971         0.993393         -150.85         0.993047        -150.837         0.117771        -61.3259
60.2                    0.120816        -60.7106         0.993021         -151.06          0.99267        -151.046         0.120943        -61.5377
60.21                   0.124231        -60.9391         0.992609        -151.284         0.992252        -151.269         0.124366         -61.764
60.22                   0.127927        -61.1843         0.992148        -151.524         0.991786        -151.509         0.128071        -62.0064
60.23                   0.131944        -61.4485         0.991631        -151.783         0.991264        -151.768         0.132096        -62.2672
60.24                   0.136322         -61.734         0.991048        -152.063         0.990675        -152.047         0.136482        -62.5489
60.25                   0.141115        -62.0441         0.990388        -152.367         0.990008        -152.351         0.141283        -62.8545
60.26                   0.146384        -62.3824         0.989634        -152.699         0.989248        -152.682          0.14656        -63.1876
60.27                   0.152204        -62.7531         0.988767        -153.062         0.988374        -153.045         0.152387        -63.5527
60.28                   0.158666        -63.1619         0.987764        -153.463         0.987363        -153.445         0.158856        -63.9551
60.29                   0.165882        -63.6153         0.986592        -153.908         0.986183         -153.89         0.166079        -64.4014
60.3                    0.173992        -64.1216          0.98521        -154.406         0.984792        -154.386         0.174196        -64.9001
60.31                   0.183172        -64.6915         0.983562        -154.966         0.983135        -154.946         0.183382        -65.4616
60.32                   0.193648        -65.3384         0.981573        -155.603         0.981135        -155.582         0.193863        -66.0994
60.33                   0.205711        -66.0801         0.979138        -156.333         0.978689        -156.312         0.205931        -66.8312
60.34                   0.219747          -66.94          0.97611        -157.181         0.975647        -157.158          0.21997        -67.6805
60.35                   0.236274          -67.95         0.972273        -158.178         0.971794        -158.154         0.236499        -68.6791
60.36                   0.256003        -69.1544         0.967302        -159.368         0.966806        -159.343         0.256226        -69.8713
60.37                   0.279934        -70.6165         0.960695        -160.815         0.960176        -160.787         0.280152        -71.3203
60.38                   0.309508        -72.4296         0.951633        -162.611         0.951089        -162.581         0.309714        -73.1194
60.39                   0.346863        -74.7365         0.938729        -164.898         0.938154        -164.865         0.347047        -75.4113
60.4                    0.395258        -77.7653         0.919484        -167.905         0.918871        -167.867         0.395402         -78.424
60.41                   0.459747        -81.8984         0.889093        -172.012         0.888435        -171.967         0.459815        -82.5394
60.42                   0.548048        -87.8086         0.837643        -177.892         0.836937        -177.835         0.547975        -88.4292
60.43                   0.670277        -96.7189         0.743415         173.235         0.742677         173.313         0.669937        -97.3133
60.44                   0.829282        -110.731         0.559767         159.269         0.559093         159.398          0.82848        -111.287
60.45                   0.975048        -132.102         0.219136         138.065         0.218762         138.423         0.973812        -132.594
60.46                   0.970821         -158.33          0.23547        -68.8156         0.235519        -69.0527         0.969936        -158.755
60.47                   0.808774          179.31         0.587528        -91.0179         0.587516        -91.0641         0.808542         178.918
60.48                   0.631396         164.408         0.775384         -105.86         0.775393        -105.876         0.631399         164.029
60.49                   0.496305          154.95         0.868129        -115.267         0.868128        -115.274          0.49632         154.587
60.5                    0.399983         148.717         0.916505        -121.457         0.916478        -121.459         0.399956         148.376
60.51                   0.330462         144.385         0.943804        -125.751          0.94375        -125.751         0.330389          144.07
60.52                    0.27879         141.225         0.960346        -128.878         0.960266        -128.875         0.278676         140.941
60.53                   0.239209         138.825         0.970973        -131.245          0.97087        -131.241         0.239063         138.577
60.54                   0.208064         136.943         0.978131        -133.097          0.97801        -133.092         0.207892         136.733
60.55                   0.182986         135.425         0.983143        -134.584         0.983006        -134.578         0.182793         135.258
60.56                   0.162393         134.173         0.986765        -135.805         0.986613        -135.798         0.162183         134.052
60.57                   0.145198         133.121         0.989451        -136.825         0.989288        -136.818         0.144974          133.05
60.58                   0.130634         132.223         0.991488        -137.692         0.991315        -137.684         0.130397         132.204
60.59                   0.118143         131.444         0.993062        -138.437          0.99288        -138.429         0.117897         131.483
60.6                    0.107314          130.76         0.994297        -139.086         0.994108        -139.078          0.10706         130.861
60.61                  0.0978379         130.154         0.995281        -139.657         0.995084        -139.648        0.0975766         130.321
60.62                  0.0894749         129.609         0.996073        -140.163         0.995871        -140.154        0.0892079         129.849
60.63                  0.0820393         129.117         0.996718        -140.616          0.99651        -140.606        0.0817676         129.433
60.64                   0.075384         128.667         0.997247        -141.024         0.997035        -141.014        0.0751088         129.067
60.65                  0.0693913         128.253         0.997686        -141.393          0.99747        -141.383        0.0691134         128.742
60.66                  0.0639657         127.868         0.998051         -141.73         0.997832         -141.72        0.0636861         128.455
60.67                  0.0590293         127.509         0.998358        -142.039         0.998135        -142.029        0.0587487         128.201
60.68                  0.0545176          127.17         0.998617        -142.324         0.998391        -142.313        0.0542369         127.977
60.69                  0.0503768         126.849         0.998836        -142.587         0.998608        -142.577        0.0500969          127.78
60.7                    0.046562         126.542         0.999022        -142.832         0.998792        -142.821        0.0462836         127.608
60.71                  0.0430349         126.247         0.999182         -143.06          0.99895        -143.049         0.042759         127.461
60.72                  0.0397632          125.96         0.999318        -143.273         0.999084        -143.262        0.0394905         127.337
60.73                  0.0367187         125.681         0.999409        -143.473           0.9992        -143.463        0.0364501         127.236
60.74                  0.0338777         125.406         0.999478        -143.662         0.999299        -143.651        0.0336141         127.158
60.75                  0.0312197         125.134         0.999543         -143.84         0.999385         -143.83        0.0309621         127.103
60.76                  0.0287267          124.86         0.999603        -144.009         0.999458        -143.998        0.0284759         127.072
60.77                  0.0263828         124.583         0.999658        -144.169         0.999522        -144.159        0.0261398         127.066
60.78                  0.0241742           124.3         0.999711        -144.322         0.999576        -144.311          0.02394         127.088
60.79                  0.0220887         124.007          0.99976        -144.467         0.999623        -144.456        0.0218643          127.14
60.8                   0.0201155         123.701         0.999806        -144.606         0.999663        -144.596        0.0199019         127.227
60.81                   0.018245         123.376         0.999849        -144.739         0.999698        -144.729        0.0180433         127.353
60.82                  0.0164685         123.025          0.99989        -144.867         0.999727        -144.856        0.0162799         127.526
60.83                  0.0147786         122.641         0.999929         -144.99         0.999752        -144.979        0.0146042         127.756
60.84                  0.0131684         122.211         0.999965        -145.108         0.999773        -145.098        0.0130094         128.058
60.85                  0.0116318          121.72                1        -145.222         0.999791        -145.212        0.0114895         128.452
60.86                  0.0101633         121.142          1.00003        -145.332         0.999805        -145.322         0.010039         128.967
60.87                 0.00875805         120.442          1.00006        -145.439         0.999817        -145.429       0.00865314         129.651
60.88                 0.00741165         119.561          1.00006        -145.542         0.999826        -145.532       0.00732782         130.582
60.89                  0.0061207         118.393          1.00007        -145.642         0.999833        -145.632        0.0060599         131.888
60.9                  0.00488255         116.738          1.00008        -145.739         0.999839         -145.73       0.00484736         133.821
60.91                 0.00369622         114.162          1.00008        -145.834         0.999842        -145.824       0.00369062         136.914
60.92                 0.00256523         109.515          1.00008        -145.926         0.999844        -145.917       0.00259671         142.527
60.93                 0.00151174         98.6295          1.00008        -146.016         0.999845        -146.006       0.00159859         155.164
60.94                0.000710308         57.7391          1.00008        -146.103         0.999844        -146.094      0.000887442        -166.565
60.95                0.000998669         -15.443          1.00007        -146.189         0.999842         -146.18       0.00109588        -105.689
60.96                  0.0018844        -35.9713          1.00007        -146.273          0.99984        -146.264       0.00189376        -82.3736
60.97                 0.00282436        -42.9323          1.00006        -146.354         0.999836        -146.346       0.00278562        -73.7107
60.98                 0.00375611        -46.3574          1.00006        -146.435         0.999832        -146.426       0.00368233        -69.4091
60.99                 0.00466872        -48.4026          1.00005        -146.513         0.999826        -146.505       0.00456556        -66.8659
61                    0.00555978        -49.7729          1.00004        -146.591         0.999821        -146.583       0.00543048        -65.1915
61.01                 0.00642916        -50.7639          1.00004        -146.666         0.999814        -146.659       0.00627606        -64.0068
61.02                  0.0072775        -51.5208          1.00003        -146.741         0.999807        -146.733       0.00710257        -63.1244
61.03                 0.00810573        -52.1228          1.00002        -146.814           0.9998        -146.807       0.00791081        -62.4417
61.04                 0.00891486        -52.6172          1.00001        -146.886         0.999792        -146.879        0.0087018        -61.8977
61.05                 0.00970594        -53.0338         0.999998        -146.957         0.999784        -146.951       0.00947663        -61.4544
61.06                    0.01048        -53.3921         0.999987        -147.028         0.999775        -147.021        0.0102364        -61.0866
61.07                   0.011238        -53.7056         0.999976        -147.097         0.999766         -147.09        0.0109821        -60.7772
61.08                  0.0119809        -53.9841         0.999964        -147.165         0.999757        -147.159        0.0117148        -60.5142
61.09                  0.0127096        -54.2346         0.999952        -147.232         0.999748        -147.227        0.0124355         -60.289
61.1                    0.013425        -54.4622         0.999939        -147.299         0.999738        -147.294         0.013145         -60.095
61.11                  0.0141279        -54.6712         0.999927        -147.365         0.999728         -147.36        0.0138441        -59.9276
61.12                  0.0148191        -54.8645         0.999913         -147.43         0.999718        -147.425        0.0145336        -59.7828
61.13                  0.0154995        -55.0446           0.9999        -147.495         0.999707         -147.49        0.0152142        -59.6578
61.14                  0.0161696        -55.2136         0.999886        -147.559         0.999697        -147.555        0.0158866        -59.5503
61.15                  0.0168302        -55.3731         0.999872        -147.622         0.999686        -147.618        0.0165514        -59.4583
61.16                  0.0174819        -55.5243         0.999857        -147.685         0.999675        -147.682        0.0172091        -59.3801
61.17                  0.0181255        -55.6683         0.999843        -147.748         0.999664        -147.745        0.0178603        -59.3144
61.18                  0.0187615        -55.8062         0.999827         -147.81         0.999653        -147.807        0.0185054        -59.2601
61.19                  0.0193904        -55.9387         0.999812        -147.872         0.999642        -147.869        0.0191449        -59.2161
61.2                    0.020013        -56.0663         0.999796        -147.933          0.99963        -147.931        0.0197793        -59.1815
61.21                  0.0206297        -56.1898          0.99978        -147.994         0.999619        -147.992        0.0204089        -59.1554
61.22                  0.0212411        -56.3097         0.999764        -148.054         0.999607        -148.053        0.0210343        -59.1372
61.23                  0.0218477        -56.4262         0.999747        -148.115         0.999595        -148.113        0.0216557        -59.1261
61.24                    0.02245          -56.54          0.99973        -148.175         0.999584        -148.174        0.0222736        -59.1215
61.25                  0.0230485        -56.6512         0.999713        -148.234         0.999572        -148.234        0.0228885        -59.1229
61.26                  0.0236437        -56.7602         0.999695        -148.294          0.99956        -148.294        0.0235005        -59.1297
61.27                  0.0242362        -56.8673         0.999677        -148.354         0.999548        -148.354        0.0241102        -59.1416
61.28                  0.0248264        -56.9728         0.999659        -148.413         0.999536        -148.414        0.0247179        -59.1579
61.29                  0.0254147        -57.0768          0.99964        -148.472         0.999523        -148.473        0.0253241        -59.1785
61.3                   0.0260017        -57.1796         0.999621        -148.531         0.999511        -148.533         0.025929        -59.2028
61.31                  0.0265878        -57.2814         0.999602         -148.59         0.999499        -148.592        0.0265331        -59.2306
61.32                  0.0271736        -57.3824         0.999582        -148.649         0.999487        -148.652        0.0271368        -59.2615
61.33                  0.0277595        -57.4826         0.999561        -148.708         0.999474        -148.711        0.0277404        -59.2954
61.34                   0.028346        -57.5824         0.999541        -148.767         0.999462         -148.77        0.0283445        -59.3319
61.35                  0.0289336        -57.6818          0.99952        -148.826         0.999449         -148.83        0.0289493        -59.3708
61.36                  0.0295228        -57.7809         0.999498        -148.886         0.999437        -148.889        0.0295554        -59.4119
61.37                  0.0301142        -57.8799         0.999476        -148.945         0.999424        -148.949        0.0301631        -59.4551
61.38                  0.0307084        -57.9789         0.999454        -149.004         0.999412        -149.009        0.0307729        -59.5002
61.39                  0.0313058        -58.0779         0.999431        -149.064         0.999399        -149.068        0.0313853         -59.547
61.4                   0.0319071        -58.1769         0.999408        -149.123         0.999386        -149.128        0.0320007        -59.5954
61.41                   0.032513        -58.2761         0.999384        -149.183         0.999373        -149.189        0.0326195        -59.6454
61.42                  0.0331239        -58.3753         0.999359        -149.243          0.99936        -149.249        0.0332423        -59.6967
61.43                  0.0337407        -58.4746         0.999334        -149.304         0.999346         -149.31        0.0338696        -59.7493
61.44                   0.034364        -58.5738         0.999309        -149.364         0.999332         -149.37        0.0345019        -59.8032
61.45                  0.0349945        -58.6728         0.999282        -149.425         0.999318        -149.432        0.0351397        -59.8582
61.46                  0.0356329        -58.7714         0.999256        -149.487         0.999304        -149.493        0.0357836        -59.9144
61.47                    0.03628        -58.8693         0.999228        -149.548         0.999289        -149.555        0.0364342        -59.9717
61.48                  0.0369364        -58.9662           0.9992        -149.611         0.999274        -149.617         0.037092        -60.0299
61.49                   0.037603        -59.0618         0.999171        -149.673         0.999258         -149.68        0.0377577        -60.0892
61.5                   0.0382803        -59.1557         0.999141        -149.736         0.999242        -149.743         0.038432        -60.1495
61.51                   0.038969        -59.2476         0.999111          -149.8         0.999224        -149.807        0.0391155        -60.2108
61.52                  0.0396698         -59.337         0.999079        -149.864         0.999206        -149.871         0.039809         -60.273
61.53                  0.0403831        -59.4237         0.999047        -149.929         0.999187        -149.936        0.0405132        -60.3362
61.54                  0.0411096        -59.5075         0.999014        -149.995         0.999167        -150.001        0.0412289        -60.4004
61.55                  0.0418496        -59.5882          0.99898        -150.061         0.999146        -150.067         0.041957        -60.4656
61.56                  0.0426038        -59.6659         0.998945        -150.128         0.999123        -150.134        0.0426983        -60.5319
61.57                  0.0433725        -59.7406         0.998908        -150.196         0.999099        -150.201        0.0434539        -60.5991
61.58                  0.0441563        -59.8128         0.998871        -150.264         0.999073         -150.27        0.0442247        -60.6674
61.59                   0.044956        -59.8827         0.998832        -150.334         0.999045        -150.339        0.0450118        -60.7369
61.6                   0.0457722         -59.951         0.998791        -150.405         0.999016        -150.409        0.0458164        -60.8075
61.61                   0.046606         -60.018         0.998749        -150.476         0.998984        -150.481        0.0466397        -60.8793
61.62                  0.0474584        -60.0845         0.998706        -150.549          0.99895        -150.553         0.047483        -60.9524
61.63                  0.0483306        -60.1509         0.998661        -150.623         0.998913        -150.627        0.0483477        -61.0268
61.64                  0.0492242        -60.2179         0.998614        -150.699         0.998873        -150.701        0.0492355        -61.1026
61.65                  0.0501409        -60.2859         0.998564        -150.776         0.998831        -150.778        0.0501479        -61.1799
61.66                  0.0510823        -60.3554         0.998513        -150.854         0.998786        -150.855        0.0510868        -61.2588
61.67                  0.0520506        -60.4268         0.998459        -150.934         0.998737        -150.935        0.0520541        -61.3393
61.68                  0.0530481        -60.5004         0.998403        -151.016         0.998685        -151.016        0.0530519        -61.4217
61.69                  0.0540772        -60.5765         0.998343          -151.1         0.998629        -151.099        0.0540827        -61.5059
61.7                   0.0551405        -60.6555         0.998281        -151.185         0.998569        -151.184         0.055149        -61.5922
61.71                  0.0562411        -60.7374         0.998215        -151.273         0.998505        -151.271        0.0562536        -61.6808
61.72                  0.0573822        -60.8226         0.998146        -151.364         0.998436        -151.361        0.0573997        -61.7717
61.73                  0.0585674        -60.9112         0.998072        -151.457         0.998362        -151.453        0.0585906        -61.8651
61.74                  0.0598005        -61.0034         0.997994        -151.553         0.998283        -151.548        0.0598303        -61.9614
61.75                  0.0610861        -61.0996         0.997912        -151.651         0.998199        -151.647         0.061123        -62.0607
61.76                  0.0624289        -61.1998         0.997823        -151.754         0.998108        -151.748        0.0624736        -62.1633
61.77                  0.0638345        -61.3045         0.997729         -151.86         0.998011        -151.853        0.0638874        -62.2694
61.78                  0.0653089        -61.4138         0.997628         -151.97         0.997906        -151.962        0.0653705        -62.3796
61.79                  0.0668592        -61.5281         0.997519        -152.084         0.997793        -152.076        0.0669299        -62.4941
61.8                   0.0684933        -61.6479         0.997402        -152.203         0.997671        -152.194        0.0685734        -62.6134
61.81                  0.0702203        -61.7735         0.997275        -152.328         0.997539        -152.318        0.0703102         -62.738
61.82                  0.0720506        -61.9057         0.997137        -152.459         0.997396        -152.448        0.0721507        -62.8685
61.83                  0.0739963        -62.0449         0.996987        -152.596          0.99724        -152.584        0.0741069        -63.0057
61.84                  0.0760717         -62.192         0.996821        -152.741         0.997069        -152.728        0.0761931        -63.1503
61.85                  0.0782932        -62.3479         0.996639        -152.895         0.996882        -152.881        0.0784259        -63.3034
61.86                  0.0806806        -62.5137         0.996438        -153.058         0.996675        -153.043        0.0808251         -63.466
61.87                  0.0832575        -62.6907         0.996213        -153.232         0.996445        -153.216        0.0834141        -63.6395
61.88                  0.0860522        -62.8805          0.99596        -153.419         0.996189        -153.401        0.0862216        -63.8255
61.89                  0.0890993        -63.0851         0.995674        -153.621         0.995901        -153.601        0.0892821        -64.0262
61.9                   0.0924415         -63.307         0.995349         -153.84         0.995574        -153.819        0.0926383        -64.2439
61.91                  0.0961318        -63.5492         0.994974        -154.079         0.995201        -154.056        0.0963436        -64.4817
61.92                   0.100237        -63.8155         0.994539        -154.343          0.99477        -154.317         0.100465        -64.7437
61.93                   0.104845        -64.1111         0.994028        -154.636         0.994267        -154.608          0.10509        -65.0347
61.94                   0.110067        -64.4423         0.993419        -154.965         0.993671        -154.934          0.11033        -65.3614
61.95                   0.116054         -64.818         0.992684        -155.339         0.992954        -155.305         0.116338        -65.7326
61.96                   0.123011        -65.2501          0.99178        -155.769         0.992076        -155.732         0.123318        -66.1602
61.97                   0.131226        -65.7555         0.990645        -156.273         0.990976        -156.232         0.131559        -66.6612