! TOUCHSTONE file generated by CST MICROWAVE STUDIO
! Date and time: Tue Feb 27 21:23:42 2024
! Project name: aire_def.cst
! Header version: 2018
! Port assignment regex: !\s*Touchstone port\s*([0-9]+)\s*=\s*(CST MWS port|CST DS port)\s*([0-9]+|Zmin|Zmax)\s*\(\"(.*)\"\)(\s*mode\s*([0-9]+))?.*
! Touchstone port assignment:
! Touchstone port 1 = CST MWS port 1 ("")
! Touchstone port 2 = CST MWS port 2 ("")
# GHz S MA R 376.7
60                   0.000268416        -87.0727                1        -143.814                1        -143.823       0.00026637        -36.5394
60.01                0.000263079        -87.6878                1        -143.838                1        -143.846      0.000260677         -36.059
60.02                0.000257769        -88.3291                1        -143.862                1         -143.87      0.000254999        -35.5566
60.03                0.000252487         -88.998                1        -143.885                1        -143.894      0.000249337        -35.0308
60.04                0.000247236        -89.6963                1        -143.909                1        -143.917      0.000243693        -34.4801
60.05                0.000242018        -90.4255                1        -143.933                1        -143.941      0.000238068        -33.9028
60.06                0.000236836        -91.1875                1        -143.956                1        -143.965      0.000232464         -33.297
60.07                0.000231693        -91.9844                1         -143.98                1        -143.988      0.000226882        -32.6607
60.08                0.000226591        -92.8182                1        -144.004                1        -144.012      0.000221326        -31.9917
60.09                0.000221536        -93.6912                1        -144.027                1        -144.035      0.000215798        -31.2877
60.1                 0.000216529        -94.6057                1        -144.051                1        -144.059        0.0002103         -30.546
60.11                0.000211575        -95.5643                1        -144.075                1        -144.083      0.000204834        -29.7639
60.12                0.000206679        -96.5696                1        -144.098                1        -144.106      0.000199405        -28.9383
60.13                0.000201845        -97.6244                1        -144.122                1         -144.13      0.000194016        -28.0658
60.14                0.000197078        -98.7318                1        -144.146                1        -144.154      0.000188671        -27.1428
60.15                0.000192385        -99.8948                1         -144.17                1        -144.177      0.000183373        -26.1653
60.16                 0.00018777        -101.117                1        -144.193                1        -144.201      0.000178129         -25.129
60.17                0.000183241        -102.401                1        -144.217                1        -144.224      0.000172942        -24.0292
60.18                0.000178805        -103.751                1        -144.241                1        -144.248       0.00016782        -22.8607
60.19                0.000174469         -105.17                1        -144.264                1        -144.272      0.000162769        -21.6181
60.2                 0.000170242        -106.662                1        -144.288                1        -144.295      0.000157795        -20.2954
60.21                0.000166132         -108.23                1        -144.312                1        -144.319      0.000152908        -18.8861
60.22                 0.00016215        -109.879                1        -144.335                1        -144.343      0.000148117        -17.3835
60.23                0.000158306         -111.61                1        -144.359                1        -144.366      0.000143431        -15.7801
60.24                 0.00015461        -113.428                1        -144.383                1         -144.39      0.000138862        -14.0683
60.25                0.000151074        -115.334                1        -144.406                1        -144.413      0.000134423        -12.2403
60.26                0.000147711        -117.332                1         -144.43                1        -144.437      0.000130128         -10.288
60.27                0.000144533        -119.422                1        -144.454                1        -144.461      0.000125991        -8.20315
60.28                0.000141553        -121.604                1        -144.477                1        -144.484      0.000122031        -5.97815
60.29                0.000138785        -123.879                1        -144.501                1        -144.508      0.000118264        -3.60579
60.3                 0.000136243        -126.246                1        -144.525                1        -144.532      0.000114712        -1.07999
60.31                0.000133939        -128.699                1        -144.548                1        -144.555      0.000111395         1.60377
60.32                0.000131889        -131.237                1        -144.572                1        -144.579      0.000108335         4.44778
60.33                0.000130103        -133.851                1        -144.596                1        -144.603      0.000105557         7.45146
60.34                0.000128595        -136.535                1         -144.62                1        -144.626      0.000103083         10.6107
60.35                0.000127375        -139.278                1        -144.643                1         -144.65      0.000100937         13.9171
60.36                0.000126451        -142.071                1        -144.667                1        -144.674      9.91402e-05         17.3575
60.37                0.000125831          -144.9                1        -144.691                1        -144.697      9.77135e-05         20.9141
60.38                0.000125521        -147.753                1        -144.714                1        -144.721       9.6674e-05         24.5641
60.39                0.000125523        -150.614                1        -144.738                1        -144.744      9.60348e-05         28.2804
60.4                 0.000125839        -153.472                1        -144.762                1        -144.768       9.5805e-05         32.0329
60.41                0.000126466         -156.31                1        -144.785                1        -144.792      9.59883e-05         35.7897
60.42                0.000127401        -159.115                1        -144.809                1        -144.815       9.6583e-05         39.5185
60.43                0.000128638        -161.875                1        -144.833                1        -144.839      9.75825e-05         43.1885
60.44                0.000130169        -164.579                1        -144.856                1        -144.863      9.89753e-05         46.7719
60.45                0.000131984        -167.216                1         -144.88                1        -144.886      0.000100746         50.2446
60.46                0.000134073        -169.779                1        -144.904                1         -144.91      0.000102875         53.5873
60.47                0.000136423         -172.26                1        -144.928                1        -144.934      0.000105342         56.7858
60.48                0.000139023        -174.654                1        -144.951                1        -144.957      0.000108125         59.8305
60.49                0.000141859        -176.958                1        -144.975                1        -144.981        0.0001112         62.7161
60.5                 0.000144917         -179.17                1        -144.999                1        -145.005      0.000114544         65.4413
60.51                0.000148185          178.71                1        -145.022                1        -145.028      0.000118136         68.0075
60.52                0.000151649         176.684                1        -145.046                1        -145.052      0.000121953         70.4188
60.53                0.000155298         174.748                1         -145.07                1        -145.076      0.000125976          72.681
60.54                0.000159118         172.903                1        -145.093                1        -145.099      0.000130187         74.8009
60.55                0.000163099         171.144                1        -145.117                1        -145.123      0.000134567         76.7862
60.56                0.000167229         169.469                1        -145.141                1        -145.146      0.000139103         78.6449
60.57                0.000171498         167.876                1        -145.165                1         -145.17      0.000143779         80.3851
60.58                0.000175896         166.359                1        -145.188                1        -145.194      0.000148582         82.0148
60.59                0.000180415         164.917                1        -145.212                1        -145.217      0.000153501         83.5417
60.6                 0.000185046         163.545                1        -145.236                1        -145.241      0.000158526         84.9733
60.61                0.000189781          162.24                1        -145.259                1        -145.265      0.000163648         86.3164
60.62                0.000194613         160.999                1        -145.283                1        -145.288      0.000168857         87.5777
60.63                0.000199535         159.817                1        -145.307                1        -145.312      0.000174146         88.7632
60.64                0.000204542         158.692                1         -145.33                1        -145.336      0.000179509         89.8785
60.65                0.000209627          157.62                1        -145.354                1        -145.359       0.00018494          90.929
60.66                0.000214785         156.599                1        -145.378                1        -145.383      0.000190432         91.9193
60.67                0.000220012         155.625                1        -145.402                1        -145.407      0.000195981          92.854
60.68                0.000225302         154.696                1        -145.425                1         -145.43      0.000201583          93.737
60.69                0.000230653          153.81                1        -145.449                1        -145.454      0.000207234         94.5722
60.7                  0.00023606         152.963                1        -145.473                1        -145.478       0.00021293         95.3629
60.71                0.000241519         152.154                1        -145.496                1        -145.501      0.000218667         96.1123
60.72                0.000247028          151.38                1         -145.52                1        -145.525      0.000224443         96.8232
60.73                0.000252583          150.64                1        -145.544                1        -145.549      0.000230255         97.4984
60.74                0.000258182         149.931                1        -145.568                1        -145.572        0.0002361         98.1401
60.75                0.000263822         149.252                1        -145.591                1        -145.596      0.000241977         98.7508
60.76                0.000269501         148.601                1        -145.615                1         -145.62      0.000247883         99.3323
60.77                0.000275216         147.977                1        -145.639                1        -145.643      0.000253816         99.8867
60.78                0.000280966         147.378                1        -145.662                1        -145.667      0.000259776         100.416
60.79                0.000286749         146.803                1        -145.686                1        -145.691      0.000265759         100.921
60.8                 0.000292562          146.25                1         -145.71                1        -145.714      0.000271765         101.403
60.81                0.000298405         145.718                1        -145.734                1        -145.738      0.000277792         101.865
60.82                0.000304276         145.207                1        -145.757                1        -145.762      0.000283839         102.307
60.83                0.000310174         144.715                1        -145.781                1        -145.785      0.000289906          102.73
60.84                0.000316096          144.24                1        -145.805                1        -145.809       0.00029599         103.136
60.85                0.000322042         143.783                1        -145.828                1        -145.833      0.000302091         103.525
60.86                0.000328011         143.343                1        -145.852                1        -145.856      0.000308209         103.898
60.87                0.000334002         142.918                1        -145.876                1         -145.88      0.000314341         104.257
60.88                0.000340013         142.508                1        -145.899                1        -145.904      0.000320488         104.602
60.89                0.000346044         142.111                1        -145.923                1        -145.927      0.000326649         104.934
60.9                 0.000352094         141.729                1        -145.947                1        -145.951      0.000332823         105.253
60.91                0.000358162         141.358                1        -145.971                1        -145.975      0.000339009         105.561
60.92                0.000364247         141.001                1        -145.994                1        -145.998      0.000345207         105.857
60.93                0.000370348         140.654                1        -146.018                1        -146.022      0.000351416         106.143
60.94                0.000376465         140.319                1        -146.042                1        -146.046      0.000357637         106.418
60.95                0.000382597         139.994                1        -146.065                1        -146.069      0.000363867         106.684
60.96                0.000388744          139.68                1        -146.089                1        -146.093      0.000370107         106.941
60.97                0.000394904         139.375                1        -146.113                1        -146.117      0.000376357         107.189
60.98                0.000401078         139.079                1        -146.137                1         -146.14      0.000382615         107.429
60.99                0.000407265         138.792                1         -146.16                1        -146.164      0.000388882          107.66
61                   0.000413464         138.514                1        -146.184                1        -146.188      0.000395157         107.885
61.01                0.000419675         138.243                1        -146.208                1        -146.211       0.00040144         108.102
61.02                0.000425897         137.981                1        -146.232                1        -146.235      0.000407731         108.312
61.03                0.000432129         137.726                1        -146.255                1        -146.259      0.000414028         108.515
61.04                0.000438373         137.477                1        -146.279                1        -146.282      0.000420333         108.712
61.05                0.000444626         137.236                1        -146.303                1        -146.306      0.000426644         108.903
61.06                0.000450889         137.002                1        -146.326                1         -146.33      0.000432962         109.089
61.07                0.000457162         136.773                1         -146.35                1        -146.354      0.000439285         109.268
61.08                0.000463443         136.551                1        -146.374                1        -146.377      0.000445615         109.443
61.09                0.000469734         136.335                1        -146.398                1        -146.401       0.00045195         109.612
61.1                 0.000476032         136.124                1        -146.421                1        -146.425       0.00045829         109.776
61.11                0.000482339         135.919                1        -146.445                1        -146.448      0.000464635         109.936
61.12                0.000488653         135.719                1        -146.469                1        -146.472      0.000470986         110.091
61.13                0.000494975         135.524                1        -146.492                1        -146.496      0.000477341         110.242
61.14                0.000501304         135.333                1        -146.516                1        -146.519        0.0004837         110.388
61.15                 0.00050764         135.148                1         -146.54                1        -146.543      0.000490064         110.531
61.16                0.000513982         134.967                1        -146.564                1        -146.567      0.000496432          110.67
61.17                0.000520331          134.79                1        -146.587                1         -146.59      0.000502804         110.804
61.18                0.000526686         134.617                1        -146.611                1        -146.614       0.00050918         110.936
61.19                0.000533047         134.449                1        -146.635                1        -146.638      0.000515559         111.063
61.2                 0.000539414         134.284                1        -146.659                1        -146.661      0.000521942         111.188
61.21                0.000545787         134.123                1        -146.682                1        -146.685      0.000528328         111.309
61.22                0.000552164         133.966                1        -146.706                1        -146.709      0.000534717         111.427
61.23                0.000558547         133.812                1         -146.73                1        -146.732      0.000541109         111.542
61.24                0.000564935         133.662                1        -146.753                1        -146.756      0.000547504         111.654
61.25                0.000571327         133.514                1        -146.777                1         -146.78      0.000553901         111.763
61.26                0.000577724         133.371                1        -146.801                1        -146.804      0.000560301          111.87
61.27                0.000584125          133.23                1        -146.825                1        -146.827      0.000566704         111.974
61.28                0.000590531         133.092                1        -146.848                1        -146.851      0.000573109         112.075
61.29                 0.00059694         132.957                1        -146.872                1        -146.875      0.000579516         112.174
61.3                 0.000603353         132.825                1        -146.896                1        -146.898      0.000585925          112.27
61.31                 0.00060977         132.696                1        -146.919                1        -146.922      0.000592336         112.364
61.32                 0.00061619         132.569                1        -146.943                1        -146.946      0.000598748         112.456
61.33                0.000622614         132.445                1        -146.967                1        -146.969      0.000605163         112.546
61.34                0.000629041         132.323                1        -146.991                1        -146.993      0.000611578         112.633
61.35                0.000635471         132.204                1        -147.014                1        -147.017      0.000617996         112.718
61.36                0.000641903         132.087                1        -147.038                1         -147.04      0.000624414         112.802
61.37                0.000648339         131.972                1        -147.062                1        -147.064      0.000630834         112.883
61.38                0.000654777          131.86                1        -147.086                1        -147.088      0.000637255         112.963
61.39                0.000661217         131.749                1        -147.109                1        -147.112      0.000643676          113.04
61.4                 0.000667659         131.641                1        -147.133                1        -147.135      0.000650099         113.116
61.41                0.000674104         131.535                1        -147.157                1        -147.159      0.000656522         113.191
61.42                0.000680551          131.43                1        -147.181                1        -147.183      0.000662946         113.263
61.43                0.000686999         131.328                1        -147.204                1        -147.206      0.000669371         113.334
61.44                 0.00069345         131.227                1        -147.228                1         -147.23      0.000675795         113.403
61.45                0.000699902         131.129                1        -147.252                1        -147.254      0.000682221         113.471
61.46                0.000706355         131.032                1        -147.275                1        -147.277      0.000688646         113.537
61.47                 0.00071281         130.936                1        -147.299                1        -147.301      0.000695072         113.602
61.48                0.000719265         130.843                1        -147.323                1        -147.325      0.000701497         113.665
61.49                0.000725722         130.751                1        -147.347                1        -147.349      0.000707923         113.727
61.5                  0.00073218          130.66                1         -147.37                1        -147.372      0.000714348         113.787
61.51                0.000738639         130.571                1        -147.394                1        -147.396      0.000720773         113.847
61.52                0.000745098         130.484                1        -147.418                1         -147.42      0.000727198         113.904
61.53                0.000751558         130.398                1        -147.442                1        -147.443      0.000733622         113.961
61.54                0.000758019         130.314                1        -147.465                1        -147.467      0.000740045         114.016
61.55                0.000764479         130.231                1        -147.489                1        -147.491      0.000746468          114.07
61.56                 0.00077094         130.149                1        -147.513                1        -147.514       0.00075289         114.123
61.57                0.000777401         130.068                1        -147.537                1        -147.538      0.000759311         114.175
61.58                0.000783862         129.989                1         -147.56                1        -147.562      0.000765731         114.226
61.59                0.000790323         129.911                1        -147.584                1        -147.586      0.000772151         114.276
61.6                 0.000796783         129.835                1        -147.608                1        -147.609      0.000778569         114.324
61.61                0.000803243         129.759                1        -147.631                1        -147.633      0.000784985         114.372
61.62                0.000809703         129.685                1        -147.655                1        -147.657      0.000791401         114.418
61.63                0.000816162         129.611                1        -147.679                1         -147.68      0.000797815         114.463
61.64                 0.00082262         129.539                1        -147.703                1        -147.704      0.000804227         114.508
61.65                0.000829078         129.468                1        -147.726                1        -147.728      0.000810638         114.551
61.66                0.000835534         129.398                1         -147.75                1        -147.751      0.000817047         114.594
61.67                0.000841989          129.33                1        -147.774                1        -147.775      0.000823454         114.635
61.68                0.000848443         129.262                1        -147.798                1        -147.799      0.000829859         114.676
61.69                0.000854896         129.195                1        -147.821                1        -147.823      0.000836263         114.716
61.7                 0.000861348         129.129                1        -147.845                1        -147.846      0.000842664         114.755
61.71                0.000867797         129.064                1        -147.869                1         -147.87      0.000849063         114.793
61.72                0.000874246             129                1        -147.893                1        -147.894      0.000855459          114.83
61.73                0.000880692         128.936                1        -147.916                1        -147.917      0.000861854         114.867
61.74                0.000887137         128.874                1         -147.94                1        -147.941      0.000868245         114.903
61.75                0.000893579         128.813                1        -147.964                1        -147.965      0.000874635         114.938
61.76                0.000900019         128.752                1        -147.987                1        -147.988      0.000881021         114.972
61.77                0.000906458         128.692                1        -148.011                1        -148.012      0.000887405         115.005
61.78                0.000912893         128.633                1        -148.035                1        -148.036      0.000893786         115.038
61.79                0.000919327         128.575                1        -148.059                1         -148.06      0.000900164          115.07
61.8                 0.000925758         128.518                1        -148.082                1        -148.083      0.000906539         115.101
61.81                0.000932186         128.461                1        -148.106                1        -148.107       0.00091291         115.131
61.82                0.000938611         128.405                1         -148.13                1        -148.131      0.000919279         115.161
61.83                0.000945033          128.35                1        -148.154                1        -148.154      0.000925644          115.19
61.84                0.000951453         128.295                1        -148.177                1        -148.178      0.000932006         115.219
61.85                0.000957869         128.242                1        -148.201                1        -148.202      0.000938364         115.247
61.86                0.000964282         128.188                1        -148.225                1        -148.226      0.000944719         115.274
61.87                0.000970692         128.136                1        -148.249                1        -148.249      0.000951069         115.301
61.88                0.000977098         128.084                1        -148.272                1        -148.273      0.000957416         115.327
61.89                  0.0009835         128.033                1        -148.296                1        -148.297       0.00096376         115.352
61.9                 0.000989899         127.982                1         -148.32                1         -148.32      0.000970099         115.377
61.91                0.000996294         127.933                1        -148.344                1        -148.344      0.000976434         115.401
61.92                 0.00100269         127.883                1        -148.367                1        -148.368      0.000982765         115.425
61.93                 0.00100907         127.834                1        -148.391                1        -148.392      0.000989091         115.448
61.94                 0.00101546         127.786                1        -148.415                1        -148.415      0.000995413          115.47
61.95                 0.00102183         127.739                1        -148.439                1        -148.439       0.00100173         115.492
61.96                 0.00102821         127.692                1        -148.462                1        -148.463       0.00100804         115.514
61.97                 0.00103458         127.645                1        -148.486                1        -148.486       0.00101435         115.534