! TOUCHSTONE file generated by CST MICROWAVE STUDIO
! Date and time: Tue Feb 27 21:04:21 2024
! Project name: material_angular.cst
! Parameters = {exis2=2; exis=5; X=5; Z=5; Y=2}
! Header version: 2018
! Port assignment regex: !\s*Touchstone port\s*([0-9]+)\s*=\s*(CST MWS port|CST DS port)\s*([0-9]+|Zmin|Zmax)\s*\(\"(.*)\"\)(\s*mode\s*([0-9]+))?.*
! Touchstone port assignment:
! Touchstone port 1 = CST MWS port 1 ("")
! Touchstone port 2 = CST MWS port 2 ("")
# GHz S MA R 376.7
60                      0.125881        -88.6208         0.992005          156.14         0.992035         156.139         0.125862        -139.097
60.01                   0.126084        -88.6471         0.991971         156.102         0.992002         156.102         0.126051        -139.135
60.02                   0.126287        -88.6734         0.991937         156.064         0.991969         156.064         0.126241        -139.173
60.03                   0.126489        -88.6998         0.991903         156.026         0.991935         156.026          0.12643        -139.211
60.04                   0.126692        -88.7263         0.991869         155.989         0.991902         155.989          0.12662        -139.249
60.05                   0.126894        -88.7528         0.991835         155.951         0.991869         155.951         0.126809        -139.287
60.06                   0.127097        -88.7794         0.991801         155.913         0.991836         155.913         0.126999        -139.325
60.07                   0.127299         -88.806         0.991767         155.876         0.991803         155.876         0.127189        -139.364
60.08                   0.127502        -88.8327         0.991733         155.838         0.991769         155.838         0.127379        -139.402
60.09                   0.127704        -88.8595           0.9917           155.8         0.991737           155.8         0.127568         -139.44
60.1                    0.127906        -88.8863         0.991666         155.763         0.991704         155.763         0.127758        -139.478
60.11                   0.128108        -88.9132         0.991632         155.725         0.991671         155.725         0.127948        -139.516
60.12                   0.128311        -88.9401         0.991599         155.687         0.991638         155.688         0.128138        -139.555
60.13                   0.128513        -88.9671         0.991566          155.65         0.991605          155.65         0.128328        -139.593
60.14                   0.128715        -88.9942         0.991532         155.612         0.991572         155.612         0.128518        -139.631
60.15                   0.128917        -89.0213         0.991499         155.574          0.99154         155.575         0.128708         -139.67
60.16                   0.129119        -89.0485         0.991466         155.537         0.991507         155.537         0.128899        -139.708
60.17                   0.129321        -89.0758         0.991433         155.499         0.991475           155.5         0.129089        -139.746
60.18                   0.129523        -89.1031           0.9914         155.462         0.991442         155.462         0.129279        -139.785
60.19                   0.129725        -89.1305         0.991367         155.424          0.99141         155.425         0.129469        -139.823
60.2                    0.129927        -89.1579         0.991334         155.387         0.991377         155.387          0.12966        -139.862
60.21                   0.130129        -89.1854         0.991301         155.349         0.991345          155.35          0.12985          -139.9
60.22                   0.130331        -89.2129         0.991268         155.312         0.991313         155.312         0.130041        -139.939
60.23                   0.130532        -89.2405         0.991236         155.274         0.991281         155.275         0.130231        -139.978
60.24                   0.130734        -89.2682         0.991203         155.237         0.991248         155.237         0.130422        -140.016
60.25                   0.130936        -89.2959          0.99117         155.199         0.991216           155.2         0.130613        -140.055
60.26                   0.131137        -89.3237         0.991138         155.162         0.991184         155.163         0.130803        -140.094
60.27                   0.131339        -89.3515         0.991105         155.124         0.991152         155.125         0.130994        -140.132
60.28                    0.13154        -89.3794         0.991073         155.087          0.99112         155.088         0.131185        -140.171
60.29                   0.131742        -89.4073         0.991041         155.049         0.991088          155.05         0.131376         -140.21
60.3                    0.131943        -89.4353         0.991008         155.012         0.991057         155.013         0.131567        -140.249
60.31                   0.132144        -89.4634         0.990976         154.974         0.991025         154.976         0.131758        -140.287
60.32                   0.132346        -89.4915         0.990944         154.937         0.990993         154.938         0.131949        -140.326
60.33                   0.132547        -89.5197         0.990912           154.9         0.990961         154.901          0.13214        -140.365
60.34                   0.132748        -89.5479          0.99088         154.862          0.99093         154.864         0.132331        -140.404
60.35                   0.132949        -89.5762         0.990848         154.825         0.990898         154.826         0.132522        -140.443
60.36                    0.13315        -89.6045         0.990816         154.787         0.990867         154.789         0.132714        -140.482
60.37                   0.133351        -89.6329         0.990784          154.75         0.990835         154.752         0.132905        -140.521
60.38                   0.133552        -89.6614         0.990753         154.713         0.990804         154.714         0.133096         -140.56
60.39                   0.133753        -89.6899         0.990721         154.675         0.990772         154.677         0.133288        -140.599
60.4                    0.133954        -89.7184         0.990689         154.638         0.990741          154.64         0.133479        -140.638
60.41                   0.134155         -89.747         0.990658         154.601          0.99071         154.602         0.133671        -140.677
60.42                   0.134355        -89.7757         0.990626         154.564         0.990679         154.565         0.133862        -140.717
60.43                   0.134556        -89.8044         0.990595         154.526         0.990647         154.528         0.134054        -140.756
60.44                   0.134757        -89.8332         0.990563         154.489         0.990616         154.491         0.134245        -140.795
60.45                   0.134957         -89.862         0.990532         154.452         0.990585         154.453         0.134437        -140.834
60.46                   0.135158        -89.8909         0.990501         154.414         0.990554         154.416         0.134629        -140.874
60.47                   0.135358        -89.9199          0.99047         154.377         0.990523         154.379         0.134821        -140.913
60.48                   0.135558        -89.9489         0.990438          154.34         0.990492         154.342         0.135013        -140.952
60.49                   0.135759        -89.9779         0.990407         154.303         0.990462         154.305         0.135205        -140.992
60.5                    0.135959         -90.007         0.990376         154.266         0.990431         154.268         0.135397        -141.031
60.51                   0.136159        -90.0361         0.990345         154.228           0.9904          154.23         0.135589        -141.071
60.52                   0.136359        -90.0653         0.990315         154.191         0.990369         154.193         0.135781         -141.11
60.53                   0.136559        -90.0946         0.990284         154.154         0.990339         154.156         0.135973         -141.15
60.54                   0.136759        -90.1239         0.990253         154.117         0.990308         154.119         0.136165        -141.189
60.55                   0.136959        -90.1533         0.990222          154.08         0.990277         154.082         0.136357        -141.229
60.56                   0.137159        -90.1827         0.990192         154.043         0.990247         154.045          0.13655        -141.268
60.57                   0.137359        -90.2121         0.990161         154.006         0.990217         154.008         0.136742        -141.308
60.58                   0.137559        -90.2416          0.99013         153.968         0.990186         153.971         0.136934        -141.348
60.59                   0.137758        -90.2712           0.9901         153.931         0.990156         153.934         0.137127        -141.387
60.6                    0.137958        -90.3008          0.99007         153.894         0.990125         153.896         0.137319        -141.427
60.61                   0.138157        -90.3305         0.990039         153.857         0.990095         153.859         0.137512        -141.467
60.62                   0.138357        -90.3602         0.990009          153.82         0.990065         153.822         0.137705        -141.507
60.63                   0.138556          -90.39         0.989979         153.783         0.990035         153.785         0.137897        -141.547
60.64                   0.138756        -90.4198         0.989948         153.746         0.990005         153.748          0.13809        -141.586
60.65                   0.138955        -90.4496         0.989918         153.709         0.989975         153.711         0.138283        -141.626
60.66                   0.139154        -90.4796         0.989888         153.672         0.989945         153.674         0.138476        -141.666
60.67                   0.139353        -90.5095         0.989858         153.635         0.989915         153.637         0.138669        -141.706
60.68                   0.139552        -90.5395         0.989828         153.598         0.989885           153.6         0.138862        -141.746
60.69                   0.139751        -90.5696         0.989798         153.561         0.989855         153.563         0.139055        -141.786
60.7                     0.13995        -90.5997         0.989769         153.524         0.989825         153.527         0.139248        -141.826
60.71                   0.140149        -90.6299         0.989739         153.487         0.989795          153.49         0.139441        -141.866
60.72                   0.140348        -90.6601         0.989709          153.45         0.989765         153.453         0.139634        -141.907
60.73                   0.140546        -90.6904         0.989679         153.413         0.989736         153.416         0.139827        -141.947
60.74                   0.140745        -90.7207          0.98965         153.376         0.989706         153.379          0.14002        -141.987
60.75                   0.140944         -90.751          0.98962         153.339         0.989677         153.342         0.140214        -142.027
60.76                   0.141142        -90.7815         0.989591         153.303         0.989647         153.305         0.140407        -142.068
60.77                    0.14134        -90.8119         0.989561         153.266         0.989617         153.268         0.140601        -142.108
60.78                   0.141539        -90.8424         0.989532         153.229         0.989588         153.231         0.140794        -142.148
60.79                   0.141737         -90.873         0.989502         153.192         0.989559         153.194         0.140988        -142.189
60.8                    0.141935        -90.9036         0.989473         153.155         0.989529         153.158         0.141181        -142.229
60.81                   0.142133        -90.9342         0.989444         153.118           0.9895         153.121         0.141375         -142.27
60.82                   0.142331        -90.9649         0.989415         153.081         0.989471         153.084         0.141569         -142.31
60.83                   0.142529        -90.9957         0.989385         153.045         0.989441         153.047         0.141762        -142.351
60.84                   0.142727        -91.0265         0.989356         153.008         0.989412          153.01         0.141956        -142.391
60.85                   0.142925        -91.0573         0.989327         152.971         0.989383         152.974          0.14215        -142.432
60.86                   0.143122        -91.0882         0.989298         152.934         0.989354         152.937         0.142344        -142.472
60.87                    0.14332        -91.1191         0.989269         152.897         0.989325           152.9         0.142538        -142.513
60.88                   0.143517        -91.1501         0.989241         152.861         0.989296         152.863         0.142732        -142.554
60.89                   0.143715        -91.1811         0.989212         152.824         0.989267         152.827         0.142926        -142.595
60.9                    0.143912        -91.2122         0.989183         152.787         0.989238          152.79          0.14312        -142.635
60.91                   0.144109        -91.2433         0.989154         152.751         0.989209         152.753         0.143315        -142.676
60.92                   0.144307        -91.2745         0.989126         152.714          0.98918         152.716         0.143509        -142.717
60.93                   0.144504        -91.3057         0.989097         152.677         0.989151          152.68         0.143703        -142.758
60.94                   0.144701         -91.337         0.989068          152.64         0.989123         152.643         0.143898        -142.799
60.95                   0.144898        -91.3683          0.98904         152.604         0.989094         152.606         0.144092         -142.84
60.96                   0.145094        -91.3996         0.989011         152.567         0.989065          152.57         0.144287        -142.881
60.97                   0.145291         -91.431         0.988983          152.53         0.989037         152.533         0.144481        -142.922
60.98                   0.145488        -91.4625         0.988955         152.494         0.989008         152.496         0.144676        -142.963
60.99                   0.145684        -91.4939         0.988926         152.457          0.98898          152.46          0.14487        -143.004
61                      0.145881        -91.5255         0.988898         152.421         0.988951         152.423         0.145065        -143.045
61.01                   0.146077        -91.5571          0.98887         152.384         0.988923         152.387          0.14526        -143.087
61.02                   0.146273        -91.5887         0.988842         152.347         0.988894          152.35         0.145455        -143.128
61.03                    0.14647        -91.6204         0.988814         152.311         0.988866         152.313          0.14565        -143.169
61.04                   0.146666        -91.6521         0.988786         152.274         0.988838         152.277         0.145845        -143.211
61.05                   0.146862        -91.6838         0.988758         152.238         0.988809          152.24          0.14604        -143.252
61.06                   0.147058        -91.7156          0.98873         152.201         0.988781         152.204         0.146235        -143.293
61.07                   0.147254        -91.7475         0.988702         152.165         0.988753         152.167          0.14643        -143.335
61.08                   0.147449        -91.7794         0.988674         152.128         0.988725         152.131         0.146625        -143.376
61.09                   0.147645        -91.8113         0.988646         152.092         0.988697         152.094          0.14682        -143.418
61.1                     0.14784        -91.8433         0.988618         152.055         0.988669         152.058         0.147016        -143.459
61.11                   0.148036        -91.8753          0.98859         152.019          0.98864         152.021         0.147211        -143.501
61.12                   0.148231        -91.9074         0.988563         151.982         0.988612         151.985         0.147407        -143.543
61.13                   0.148426        -91.9395         0.988535         151.946         0.988585         151.948         0.147602        -143.585
61.14                   0.148622        -91.9716         0.988507         151.909         0.988557         151.912         0.147798        -143.626
61.15                   0.148817        -92.0038          0.98848         151.873         0.988529         151.875         0.147993        -143.668
61.16                   0.149012        -92.0361         0.988452         151.836         0.988501         151.839         0.148189         -143.71
61.17                   0.149206        -92.0683         0.988425           151.8         0.988473         151.802         0.148385        -143.752
61.18                   0.149401        -92.1007         0.988398         151.763         0.988445         151.766         0.148581        -143.794
61.19                   0.149596         -92.133          0.98837         151.727         0.988418          151.73         0.148777        -143.836
61.2                     0.14979        -92.1655         0.988343         151.691          0.98839         151.693         0.148973        -143.878
61.21                   0.149985        -92.1979         0.988316         151.654         0.988362         151.657         0.149169         -143.92
61.22                   0.150179        -92.2304         0.988288         151.618         0.988335          151.62         0.149365        -143.962
61.23                   0.150373         -92.263         0.988261         151.582         0.988307         151.584         0.149561        -144.004
61.24                   0.150567        -92.2955         0.988234         151.545          0.98828         151.548         0.149757        -144.047
61.25                   0.150761        -92.3282         0.988207         151.509         0.988252         151.511         0.149953        -144.089
61.26                   0.150955        -92.3608          0.98818         151.473         0.988225         151.475          0.15015        -144.131
61.27                   0.151149        -92.3935         0.988153         151.436         0.988197         151.439         0.150346        -144.173
61.28                   0.151343        -92.4263         0.988126           151.4          0.98817         151.402         0.150543        -144.216
61.29                   0.151536        -92.4591         0.988099         151.364         0.988142         151.366         0.150739        -144.258
61.3                     0.15173        -92.4919         0.988072         151.327         0.988115          151.33         0.150936        -144.301
61.31                   0.151923        -92.5248         0.988045         151.291         0.988088         151.294         0.151132        -144.343
61.32                   0.152116        -92.5577         0.988019         151.255         0.988061         151.257         0.151329        -144.386
61.33                   0.152309        -92.5907         0.987992         151.219         0.988033         151.221         0.151526        -144.429
61.34                   0.152502        -92.6237         0.987965         151.182         0.988006         151.185         0.151723        -144.471
61.35                   0.152695        -92.6567         0.987938         151.146         0.987979         151.149          0.15192        -144.514
61.36                   0.152888        -92.6898         0.987912          151.11         0.987952         151.112         0.152117        -144.557
61.37                   0.153081         -92.723         0.987885         151.074         0.987925         151.076         0.152314          -144.6
61.38                   0.153273        -92.7561         0.987859         151.038         0.987898          151.04         0.152511        -144.643
61.39                   0.153466        -92.7893         0.987832         151.001         0.987871         151.004         0.152708        -144.686
61.4                    0.153658        -92.8226         0.987806         150.965         0.987844         150.968         0.152906        -144.729
61.41                    0.15385        -92.8559         0.987779         150.929         0.987817         150.931         0.153103        -144.772
61.42                   0.154042        -92.8892         0.987753         150.893          0.98779         150.895           0.1533        -144.815
61.43                   0.154234        -92.9226         0.987727         150.857         0.987763         150.859         0.153498        -144.858
61.44                   0.154426         -92.956           0.9877         150.821         0.987737         150.823         0.153696        -144.902
61.45                   0.154618        -92.9894         0.987674         150.785          0.98771         150.787         0.153893        -144.945
61.46                    0.15481        -93.0229         0.987648         150.749         0.987683         150.751         0.154091        -144.988
61.47                   0.155001        -93.0565         0.987622         150.713         0.987656         150.715         0.154289        -145.032
61.48                   0.155192          -93.09         0.987595         150.676          0.98763         150.679         0.154487        -145.075
61.49                   0.155384        -93.1237         0.987569          150.64         0.987603         150.642         0.154685        -145.119
61.5                    0.155575        -93.1573         0.987543         150.604         0.987577         150.606         0.154883        -145.163
61.51                   0.155766         -93.191         0.987517         150.568          0.98755          150.57         0.155081        -145.206
61.52                   0.155956        -93.2247         0.987491         150.532         0.987523         150.534         0.155279         -145.25
61.53                   0.156147        -93.2585         0.987465         150.496         0.987497         150.498         0.155477        -145.294
61.54                   0.156338        -93.2923         0.987439          150.46          0.98747         150.462         0.155675        -145.338
61.55                   0.156528        -93.3262         0.987413         150.424         0.987444         150.426         0.155874        -145.382
61.56                   0.156719        -93.3601         0.987388         150.388         0.987418          150.39         0.156072        -145.426
61.57                   0.156909         -93.394         0.987362         150.352         0.987391         150.354         0.156271         -145.47
61.58                   0.157099         -93.428         0.987336         150.316         0.987365         150.318          0.15647        -145.514
61.59                   0.157289         -93.462          0.98731         150.281         0.987339         150.282         0.156668        -145.558
61.6                    0.157479        -93.4961         0.987285         150.245         0.987312         150.246         0.156867        -145.602
61.61                   0.157668        -93.5301         0.987259         150.209         0.987286          150.21         0.157066        -145.647
61.62                   0.157858        -93.5643         0.987233         150.173          0.98726         150.174         0.157265        -145.691
61.63                   0.158047        -93.5984         0.987208         150.137         0.987234         150.139         0.157464        -145.735
61.64                   0.158236        -93.6326         0.987182         150.101         0.987208         150.103         0.157663         -145.78
61.65                   0.158425        -93.6669         0.987157         150.065         0.987181         150.067         0.157862        -145.825
61.66                   0.158614        -93.7012         0.987131         150.029         0.987155         150.031         0.158062        -145.869
61.67                   0.158803        -93.7355         0.987106         149.993         0.987129         149.995         0.158261        -145.914
61.68                   0.158992        -93.7699          0.98708         149.958         0.987103         149.959         0.158461        -145.959
61.69                    0.15918        -93.8043         0.987055         149.922         0.987077         149.923          0.15866        -146.004
61.7                    0.159369        -93.8387         0.987029         149.886         0.987051         149.887          0.15886        -146.049
61.71                   0.159557        -93.8732         0.987004          149.85         0.987025         149.852         0.159059        -146.094
61.72                   0.159745        -93.9077         0.986979         149.814         0.986999         149.816         0.159259        -146.139
61.73                   0.159933        -93.9422         0.986954         149.779         0.986974          149.78         0.159459        -146.184
61.74                   0.160121        -93.9768         0.986928         149.743         0.986948         149.744         0.159659        -146.229
61.75                   0.160309        -94.0115         0.986903         149.707         0.986922         149.708         0.159859        -146.275
61.76                   0.160496        -94.0461         0.986878         149.671         0.986896         149.673         0.160059         -146.32
61.77                   0.160684        -94.0808         0.986853         149.636          0.98687         149.637          0.16026        -146.366
61.78                   0.160871        -94.1156         0.986828           149.6         0.986845         149.601          0.16046        -146.411
61.79                   0.161058        -94.1504         0.986803         149.564         0.986819         149.565          0.16066        -146.457
61.8                    0.161245        -94.1852         0.986778         149.528         0.986793         149.529         0.160861        -146.503
61.81                   0.161432          -94.22         0.986753         149.493         0.986768         149.494         0.161061        -146.549
61.82                   0.161618        -94.2549         0.986728         149.457         0.986742         149.458         0.161262        -146.595
61.83                   0.161805        -94.2899         0.986703         149.421         0.986716         149.422         0.161463        -146.641
61.84                   0.161991        -94.3248         0.986678         149.386         0.986691         149.387         0.161664        -146.687
61.85                   0.162177        -94.3598         0.986653          149.35         0.986665         149.351         0.161865        -146.733
61.86                   0.162363        -94.3949         0.986628         149.314          0.98664         149.315         0.162066        -146.779
61.87                   0.162549          -94.43         0.986603         149.279         0.986614          149.28         0.162267        -146.826
61.88                   0.162734        -94.4651         0.986579         149.243         0.986589         149.244         0.162468        -146.872
61.89                    0.16292        -94.5002         0.986554         149.208         0.986563         149.208          0.16267        -146.919
61.9                    0.163105        -94.5354         0.986529         149.172         0.986538         149.173         0.162871        -146.966
61.91                    0.16329        -94.5707         0.986504         149.137         0.986513         149.137         0.163073        -147.013
61.92                   0.163475        -94.6059          0.98648         149.101         0.986487         149.101         0.163274        -147.059
61.93                    0.16366        -94.6412         0.986455         149.065         0.986462         149.066         0.163476        -147.106
61.94                   0.163845        -94.6766          0.98643          149.03         0.986437          149.03         0.163678        -147.154
61.95                   0.164029        -94.7119         0.986406         148.994         0.986411         148.995          0.16388        -147.201
61.96                   0.164213        -94.7474         0.986381         148.959         0.986386         148.959         0.164082        -147.248
61.97                   0.164398        -94.7828         0.986357         148.923         0.986361         148.924         0.164284        -147.296