! TOUCHSTONE file generated by CST MICROWAVE STUDIO
! Date and time: Tue Feb 27 21:04:27 2024
! Project name: material_angular.cst
! Parameters = {exis2=4; exis=5; X=5; Z=5; Y=2}
! Header version: 2018
! Port assignment regex: !\s*Touchstone port\s*([0-9]+)\s*=\s*(CST MWS port|CST DS port)\s*([0-9]+|Zmin|Zmax)\s*\(\"(.*)\"\)(\s*mode\s*([0-9]+))?.*
! Touchstone port assignment:
! Touchstone port 1 = CST MWS port 1 ("")
! Touchstone port 2 = CST MWS port 2 ("")
# GHz S MA R 376.7
60                      0.105873        -63.8094         0.994299         156.913         0.994381         156.925         0.105875        -162.323
60.01                   0.106044        -63.8122         0.994288         156.876         0.994363         156.888         0.106046        -162.394
60.02                   0.106215        -63.8152         0.994276         156.838         0.994345         156.851         0.106216        -162.465
60.03                   0.106386        -63.8185         0.994264         156.801         0.994328         156.814         0.106386        -162.535
60.04                   0.106557        -63.8219         0.994252         156.763          0.99431         156.777         0.106556        -162.606
60.05                   0.106728        -63.8256          0.99424         156.726         0.994292          156.74         0.106726        -162.676
60.06                   0.106898        -63.8294         0.994227         156.688         0.994274         156.703         0.106896        -162.746
60.07                   0.107069        -63.8335         0.994215         156.651         0.994256         156.666         0.107065        -162.816
60.08                    0.10724        -63.8377         0.994202         156.613         0.994238         156.629         0.107235        -162.885
60.09                    0.10741        -63.8422          0.99419         156.576          0.99422         156.591         0.107405        -162.954
60.1                    0.107581        -63.8469         0.994177         156.538         0.994202         156.554         0.107574        -163.024
60.11                   0.107751        -63.8518         0.994164         156.501         0.994184         156.517         0.107743        -163.092
60.12                   0.107921        -63.8569         0.994151         156.464         0.994166          156.48         0.107913        -163.161
60.13                   0.108091        -63.8621         0.994138         156.426         0.994148         156.443         0.108082         -163.23
60.14                   0.108262        -63.8676         0.994125         156.389          0.99413         156.406         0.108251        -163.298
60.15                   0.108432        -63.8733         0.994111         156.351         0.994112         156.369          0.10842        -163.366
60.16                   0.108602        -63.8792         0.994098         156.314         0.994094         156.332         0.108589        -163.434
60.17                   0.108771        -63.8852         0.994084         156.277         0.994076         156.295         0.108758        -163.501
60.18                   0.108941        -63.8915         0.994071         156.239         0.994058         156.258         0.108927        -163.569
60.19                   0.109111        -63.8979         0.994057         156.202         0.994039         156.221         0.109096        -163.636
60.2                    0.109281        -63.9045         0.994043         156.165         0.994021         156.184         0.109264        -163.703
60.21                    0.10945        -63.9114         0.994029         156.128         0.994003         156.147         0.109433         -163.77
60.22                    0.10962        -63.9184         0.994015          156.09         0.993985          156.11         0.109601        -163.836
60.23                   0.109789        -63.9255            0.994         156.053         0.993966         156.073         0.109769        -163.903
60.24                   0.109958        -63.9329         0.993986         156.016         0.993948         156.037         0.109938        -163.969
60.25                   0.110127        -63.9405         0.993972         155.979          0.99393             156         0.110106        -164.035
60.26                   0.110296        -63.9482         0.993957         155.942         0.993911         155.963         0.110274        -164.101
60.27                   0.110465        -63.9561         0.993942         155.904         0.993893         155.926         0.110442        -164.167
60.28                   0.110634        -63.9642         0.993928         155.867         0.993874         155.889          0.11061        -164.232
60.29                   0.110803        -63.9725         0.993913          155.83         0.993856         155.852         0.110777        -164.297
60.3                    0.110972        -63.9809         0.993898         155.793         0.993837         155.815         0.110945        -164.362
60.31                    0.11114        -63.9895         0.993883         155.756         0.993819         155.778         0.111113        -164.427
60.32                   0.111309        -63.9983         0.993868         155.719           0.9938         155.741          0.11128        -164.492
60.33                   0.111477        -64.0073         0.993852         155.682         0.993782         155.705         0.111447        -164.557
60.34                   0.111646        -64.0164         0.993837         155.644         0.993763         155.668         0.111615        -164.621
60.35                   0.111814        -64.0257         0.993821         155.607         0.993745         155.631         0.111782        -164.685
60.36                   0.111982        -64.0352         0.993806          155.57         0.993726         155.594         0.111949        -164.749
60.37                    0.11215        -64.0448          0.99379         155.533         0.993707         155.557         0.112116        -164.813
60.38                   0.112318        -64.0546         0.993775         155.496         0.993689          155.52         0.112283        -164.876
60.39                   0.112486        -64.0646         0.993759         155.459          0.99367         155.484          0.11245         -164.94
60.4                    0.112654        -64.0747         0.993743         155.422         0.993651         155.447         0.112616        -165.003
60.41                   0.112821         -64.085         0.993727         155.385         0.993633          155.41         0.112783        -165.066
60.42                   0.112989        -64.0954         0.993711         155.348         0.993614         155.373         0.112949        -165.129
60.43                   0.113156         -64.106         0.993695         155.311         0.993595         155.336         0.113116        -165.192
60.44                   0.113324        -64.1168         0.993678         155.274         0.993576           155.3         0.113282        -165.254
60.45                   0.113491        -64.1277         0.993662         155.237         0.993558         155.263         0.113448        -165.317
60.46                   0.113658        -64.1388         0.993646           155.2         0.993539         155.226         0.113614        -165.379
60.47                   0.113825          -64.15         0.993629         155.164          0.99352         155.189          0.11378        -165.441
60.48                   0.113992        -64.1614         0.993612         155.127         0.993501         155.153         0.113946        -165.503
60.49                   0.114159         -64.173         0.993596          155.09         0.993482         155.116         0.114112        -165.565
60.5                    0.114326        -64.1847         0.993579         155.053         0.993463         155.079         0.114277        -165.626
60.51                   0.114492        -64.1965         0.993562         155.016         0.993444         155.042         0.114443        -165.688
60.52                   0.114659        -64.2085         0.993545         154.979         0.993425         155.006         0.114608        -165.749
60.53                   0.114825        -64.2206         0.993528         154.942         0.993406         154.969         0.114774         -165.81
60.54                   0.114991        -64.2329         0.993511         154.905         0.993387         154.932         0.114939        -165.871
60.55                   0.115158        -64.2453         0.993494         154.869         0.993368         154.896         0.115104        -165.932
60.56                   0.115324        -64.2579         0.993477         154.832         0.993349         154.859         0.115269        -165.993
60.57                    0.11549        -64.2706          0.99346         154.795          0.99333         154.822         0.115434        -166.053
60.58                   0.115656        -64.2835         0.993442         154.758         0.993311         154.786         0.115599        -166.113
60.59                   0.115821        -64.2965         0.993425         154.722         0.993292         154.749         0.115763        -166.173
60.6                    0.115987        -64.3097         0.993407         154.685         0.993273         154.712         0.115928        -166.233
60.61                   0.116153        -64.3229          0.99339         154.648         0.993254         154.676         0.116092        -166.293
60.62                   0.116318        -64.3364         0.993372         154.611         0.993235         154.639         0.116257        -166.353
60.63                   0.116483        -64.3499         0.993354         154.575         0.993215         154.603         0.116421        -166.413
60.64                   0.116649        -64.3636         0.993336         154.538         0.993196         154.566         0.116585        -166.472
60.65                   0.116814        -64.3775         0.993319         154.501         0.993177         154.529         0.116749        -166.531
60.66                   0.116979        -64.3914         0.993301         154.464         0.993158         154.493         0.116913         -166.59
60.67                   0.117144        -64.4055         0.993283         154.428         0.993138         154.456         0.117077        -166.649
60.68                   0.117308        -64.4198         0.993265         154.391         0.993119          154.42         0.117241        -166.708
60.69                   0.117473        -64.4341         0.993247         154.354           0.9931         154.383         0.117404        -166.767
60.7                    0.117637        -64.4486         0.993228         154.318         0.993081         154.346         0.117568        -166.825
60.71                   0.117802        -64.4633          0.99321         154.281         0.993061          154.31         0.117731        -166.884
60.72                   0.117966         -64.478         0.993192         154.245         0.993042         154.273         0.117894        -166.942
60.73                    0.11813        -64.4929         0.993173         154.208         0.993022         154.237         0.118057            -167
60.74                   0.118294        -64.5079         0.993155         154.171         0.993003           154.2          0.11822        -167.058
60.75                   0.118458        -64.5231         0.993136         154.135         0.992984         154.164         0.118383        -167.116
60.76                   0.118622        -64.5383         0.993118         154.098         0.992964         154.127         0.118546        -167.174
60.77                   0.118786        -64.5537         0.993099         154.062         0.992945         154.091         0.118709        -167.231
60.78                    0.11895        -64.5692         0.993081         154.025         0.992925         154.054         0.118871        -167.289
60.79                   0.119113        -64.5849         0.993062         153.989         0.992906         154.018         0.119034        -167.346
60.8                    0.119276        -64.6006         0.993043         153.952         0.992886         153.981         0.119196        -167.403
60.81                    0.11944        -64.6165         0.993024         153.916         0.992867         153.945         0.119359         -167.46
60.82                   0.119603        -64.6325         0.993005         153.879         0.992847         153.908         0.119521        -167.517
60.83                   0.119766        -64.6486         0.992986         153.843         0.992828         153.872         0.119683        -167.574
60.84                   0.119929        -64.6648         0.992967         153.806         0.992808         153.835         0.119845         -167.63
60.85                   0.120092        -64.6812         0.992948          153.77         0.992789         153.799         0.120006        -167.687
60.86                   0.120254        -64.6977         0.992929         153.733         0.992769         153.762         0.120168        -167.743
60.87                   0.120417        -64.7142          0.99291         153.697         0.992749         153.726          0.12033        -167.799
60.88                   0.120579        -64.7309         0.992891          153.66          0.99273          153.69         0.120491        -167.856
60.89                   0.120742        -64.7478         0.992871         153.624          0.99271         153.653         0.120652        -167.912
60.9                    0.120904        -64.7647         0.992852         153.587          0.99269         153.617         0.120814        -167.967
60.91                   0.121066        -64.7817         0.992833         153.551         0.992671          153.58         0.120975        -168.023
60.92                   0.121228        -64.7989         0.992813         153.514         0.992651         153.544         0.121136        -168.079
60.93                    0.12139        -64.8161         0.992794         153.478         0.992631         153.507         0.121297        -168.134
60.94                   0.121551        -64.8335         0.992774         153.442         0.992612         153.471         0.121457         -168.19
60.95                   0.121713         -64.851         0.992755         153.405         0.992592         153.435         0.121618        -168.245
60.96                   0.121874        -64.8686         0.992735         153.369         0.992572         153.398         0.121778          -168.3
60.97                   0.122036        -64.8863         0.992715         153.333         0.992552         153.362         0.121939        -168.355
60.98                   0.122197        -64.9041         0.992696         153.296         0.992533         153.325         0.122099         -168.41
60.99                   0.122358         -64.922         0.992676          153.26         0.992513         153.289         0.122259        -168.465
61                      0.122519          -64.94         0.992656         153.224         0.992493         153.253         0.122419         -168.52
61.01                    0.12268        -64.9581         0.992636         153.187         0.992473         153.216         0.122579        -168.574
61.02                   0.122841        -64.9763         0.992616         153.151         0.992453          153.18         0.122739        -168.629
61.03                   0.123001        -64.9947         0.992597         153.115         0.992433         153.144         0.122899        -168.683
61.04                   0.123162        -65.0131         0.992577         153.078         0.992413         153.107         0.123058        -168.737
61.05                   0.123322        -65.0316         0.992557         153.042         0.992394         153.071         0.123218        -168.791
61.06                   0.123482        -65.0503         0.992536         153.006         0.992374         153.035         0.123377        -168.845
61.07                   0.123642         -65.069         0.992516         152.969         0.992354         152.998         0.123537        -168.899
61.08                   0.123802        -65.0878         0.992496         152.933         0.992334         152.962         0.123696        -168.953
61.09                   0.123962        -65.1068         0.992476         152.897         0.992314         152.926         0.123855        -169.007
61.1                    0.124122        -65.1258         0.992456         152.861         0.992294          152.89         0.124014         -169.06
61.11                   0.124282        -65.1449         0.992436         152.824         0.992274         152.853         0.124172        -169.114
61.12                   0.124441        -65.1641         0.992415         152.788         0.992254         152.817         0.124331        -169.167
61.13                     0.1246        -65.1835         0.992395         152.752         0.992234         152.781         0.124489         -169.22
61.14                    0.12476        -65.2029         0.992375         152.716         0.992214         152.744         0.124648        -169.273
61.15                   0.124919        -65.2224         0.992354          152.68         0.992194         152.708         0.124806        -169.326
61.16                   0.125078         -65.242         0.992334         152.643         0.992174         152.672         0.124964        -169.379
61.17                   0.125237        -65.2617         0.992313         152.607         0.992154         152.636         0.125122        -169.432
61.18                   0.125395        -65.2815         0.992293         152.571         0.992134         152.599          0.12528        -169.485
61.19                   0.125554        -65.3014         0.992272         152.535         0.992113         152.563         0.125438        -169.537
61.2                    0.125712        -65.3214         0.992252         152.499         0.992093         152.527         0.125596         -169.59
61.21                   0.125871        -65.3414         0.992231         152.463         0.992073         152.491         0.125753        -169.642
61.22                   0.126029        -65.3616          0.99221         152.426         0.992053         152.454         0.125911        -169.695
61.23                   0.126187        -65.3818          0.99219          152.39         0.992033         152.418         0.126068        -169.747
61.24                   0.126345        -65.4022         0.992169         152.354         0.992013         152.382         0.126225        -169.799
61.25                   0.126503        -65.4226         0.992148         152.318         0.991993         152.346         0.126382        -169.851
61.26                   0.126661        -65.4431         0.992128         152.282         0.991972          152.31         0.126539        -169.903
61.27                   0.126818        -65.4637         0.992107         152.246         0.991952         152.273         0.126696        -169.955
61.28                   0.126976        -65.4844         0.992086          152.21         0.991932         152.237         0.126853        -170.006
61.29                   0.127133        -65.5052         0.992065         152.174         0.991912         152.201          0.12701        -170.058
61.3                     0.12729         -65.526         0.992044         152.138         0.991892         152.165         0.127166         -170.11
61.31                   0.127447         -65.547         0.992023         152.102         0.991871         152.129         0.127322        -170.161
61.32                   0.127604         -65.568         0.992002         152.065         0.991851         152.093         0.127479        -170.212
61.33                   0.127761        -65.5891         0.991981         152.029         0.991831         152.056         0.127635        -170.264
61.34                   0.127918        -65.6103          0.99196         151.993          0.99181          152.02         0.127791        -170.315
61.35                   0.128074        -65.6316         0.991939         151.957          0.99179         151.984         0.127947        -170.366
61.36                   0.128231        -65.6529         0.991918         151.921          0.99177         151.948         0.128102        -170.417
61.37                   0.128387        -65.6744         0.991897         151.885          0.99175         151.912         0.128258        -170.468
61.38                   0.128543        -65.6959         0.991876         151.849         0.991729         151.876         0.128414        -170.518
61.39                   0.128699        -65.7175         0.991855         151.813         0.991709         151.839         0.128569        -170.569
61.4                    0.128855        -65.7392         0.991834         151.777         0.991689         151.803         0.128724         -170.62
61.41                   0.129011        -65.7609         0.991813         151.741         0.991668         151.767         0.128879         -170.67
61.42                   0.129167        -65.7828         0.991792         151.705         0.991648         151.731         0.129035        -170.721
61.43                   0.129322        -65.8047          0.99177         151.669         0.991627         151.695         0.129189        -170.771
61.44                   0.129478        -65.8267         0.991749         151.633         0.991607         151.659         0.129344        -170.821
61.45                   0.129633        -65.8488         0.991728         151.597         0.991587         151.623         0.129499        -170.871
61.46                   0.129788        -65.8709         0.991707         151.561         0.991566         151.587         0.129653        -170.922
61.47                   0.129943        -65.8932         0.991685         151.525         0.991546         151.551         0.129808        -170.972
61.48                   0.130098        -65.9155         0.991664         151.489         0.991525         151.514         0.129962        -171.021
61.49                   0.130253        -65.9378         0.991643         151.453         0.991505         151.478         0.130116        -171.071
61.5                    0.130407        -65.9603         0.991621         151.417         0.991484         151.442          0.13027        -171.121
61.51                   0.130562        -65.9828           0.9916         151.382         0.991464         151.406         0.130424        -171.171
61.52                   0.130716        -66.0054         0.991579         151.346         0.991443          151.37         0.130578         -171.22
61.53                    0.13087        -66.0281         0.991557          151.31         0.991423         151.334         0.130732         -171.27
61.54                   0.131024        -66.0509         0.991536         151.274         0.991402         151.298         0.130885        -171.319
61.55                   0.131178        -66.0737         0.991514         151.238         0.991382         151.262         0.131039        -171.369
61.56                   0.131332        -66.0966         0.991493         151.202         0.991361         151.226         0.131192        -171.418
61.57                   0.131486        -66.1195         0.991471         151.166         0.991341          151.19         0.131345        -171.467
61.58                   0.131639        -66.1426          0.99145          151.13          0.99132         151.154         0.131499        -171.516
61.59                   0.131793        -66.1657         0.991428         151.094           0.9913         151.118         0.131652        -171.565
61.6                    0.131946        -66.1889         0.991407         151.058         0.991279         151.082         0.131804        -171.614
61.61                   0.132099        -66.2121         0.991385         151.023         0.991259         151.046         0.131957        -171.663
61.62                   0.132253        -66.2354         0.991364         150.987         0.991238          151.01          0.13211        -171.712
61.63                   0.132405        -66.2588         0.991342         150.951         0.991217         150.974         0.132262         -171.76
61.64                   0.132558        -66.2823          0.99132         150.915         0.991197         150.938         0.132415        -171.809
61.65                   0.132711        -66.3058         0.991299         150.879         0.991176         150.902         0.132567        -171.858
61.66                   0.132863        -66.3294         0.991277         150.843         0.991156         150.866         0.132719        -171.906
61.67                   0.133016        -66.3531         0.991255         150.807         0.991135          150.83         0.132871        -171.954
61.68                   0.133168        -66.3768         0.991234         150.772         0.991114         150.794         0.133023        -172.003
61.69                    0.13332        -66.4006         0.991212         150.736         0.991094         150.758         0.133174        -172.051
61.7                    0.133472        -66.4244          0.99119           150.7         0.991073         150.722         0.133326        -172.099
61.71                   0.133624        -66.4484         0.991169         150.664         0.991052         150.686         0.133478        -172.147
61.72                   0.133776        -66.4724         0.991147         150.628         0.991032          150.65         0.133629        -172.195
61.73                   0.133928        -66.4964         0.991125         150.592         0.991011         150.614          0.13378        -172.243
61.74                   0.134079        -66.5205         0.991104         150.557          0.99099         150.578         0.133931        -172.291
61.75                    0.13423        -66.5447         0.991082         150.521          0.99097         150.542         0.134082        -172.339
61.76                   0.134382         -66.569          0.99106         150.485         0.990949         150.506         0.134233        -172.387
61.77                   0.134533        -66.5933         0.991038         150.449         0.990928          150.47         0.134384        -172.434
61.78                   0.134684        -66.6176         0.991017         150.413         0.990907         150.434         0.134535        -172.482
61.79                   0.134835        -66.6421         0.990995         150.378         0.990887         150.398         0.134685         -172.53
61.8                    0.134985        -66.6666         0.990973         150.342         0.990866         150.362         0.134836        -172.577
61.81                   0.135136        -66.6911         0.990951         150.306         0.990845         150.326         0.134986        -172.624
61.82                   0.135286        -66.7158         0.990929          150.27         0.990824          150.29         0.135136        -172.672
61.83                   0.135437        -66.7405         0.990907         150.235         0.990804         150.254         0.135286        -172.719
61.84                   0.135587        -66.7652         0.990886         150.199         0.990783         150.218         0.135436        -172.766
61.85                   0.135737          -66.79         0.990864         150.163         0.990762         150.182         0.135586        -172.813
61.86                   0.135887        -66.8149         0.990842         150.127         0.990741         150.146         0.135735         -172.86
61.87                   0.136036        -66.8398          0.99082         150.091         0.990721          150.11         0.135885        -172.907
61.88                   0.136186        -66.8648         0.990798         150.056           0.9907         150.074         0.136034        -172.954
61.89                   0.136336        -66.8898         0.990776          150.02         0.990679         150.039         0.136184        -173.001
61.9                    0.136485        -66.9149         0.990754         149.984         0.990658         150.003         0.136333        -173.048
61.91                   0.136634        -66.9401         0.990733         149.949         0.990637         149.967         0.136482        -173.095
61.92                   0.136783        -66.9653         0.990711         149.913         0.990616         149.931         0.136631        -173.141
61.93                   0.136932        -66.9906         0.990689         149.877         0.990596         149.895         0.136779        -173.188
61.94                   0.137081        -67.0159         0.990667         149.841         0.990575         149.859         0.136928        -173.235
61.95                    0.13723        -67.0413         0.990645         149.806         0.990554         149.823         0.137077        -173.281
61.96                   0.137379        -67.0668         0.990623          149.77         0.990533         149.787         0.137225        -173.328
61.97                   0.137527        -67.0923         0.990601         149.734         0.990512         149.751         0.137373        -173.374