! TOUCHSTONE file generated by CST MICROWAVE STUDIO
! Date and time: Tue Feb 27 23:34:14 2024
! Project name: material_desal.cst
! Header version: 2018
! Port assignment regex: !\s*Touchstone port\s*([0-9]+)\s*=\s*(CST MWS port|CST DS port)\s*([0-9]+|Zmin|Zmax)\s*\(\"(.*)\"\)(\s*mode\s*([0-9]+))?.*
! Touchstone port assignment:
! Touchstone port 1 = CST MWS port 1 ("")
! Touchstone port 2 = CST MWS port 2 ("")
# GHz S MA R 376.7
60                       0.14124        -114.553         0.989809         155.166         0.989996         155.163         0.141275        -115.026
60.01                   0.141683        -114.612         0.989728         155.114         0.989927          155.11         0.141726        -115.088
60.02                   0.142118        -114.668         0.989651         155.063         0.989861         155.058         0.142168        -115.148
60.03                   0.142545        -114.724         0.989578         155.013         0.989796         155.007         0.142601        -115.206
60.04                   0.142965        -114.778         0.989508         154.963         0.989732         154.956         0.143026        -115.263
60.05                   0.143377        -114.832         0.989442         154.913          0.98967         154.906         0.143443        -115.319
60.06                   0.143783        -114.884         0.989379         154.865         0.989609         154.857         0.143852        -115.373
60.07                   0.144181        -114.936         0.989319         154.816         0.989549         154.808         0.144255        -115.426
60.08                   0.144574        -114.987         0.989261         154.768         0.989491          154.76          0.14465        -115.478
60.09                    0.14496        -115.036         0.989206         154.721         0.989433         154.712         0.145039        -115.529
60.1                    0.145341        -115.086         0.989152         154.674         0.989377         154.665         0.145421        -115.579
60.11                   0.145716        -115.134           0.9891         154.627         0.989321         154.618         0.145798        -115.628
60.12                   0.146086        -115.182          0.98905          154.58         0.989267         154.571         0.146168        -115.677
60.13                    0.14645        -115.229         0.989001         154.534         0.989213         154.525         0.146534        -115.724
60.14                    0.14681        -115.276         0.988954         154.489          0.98916          154.48         0.146894        -115.771
60.15                   0.147164        -115.322         0.988908         154.443         0.989107         154.434         0.147249        -115.818
60.16                   0.147515        -115.368         0.988863         154.398         0.989056         154.389         0.147599        -115.863
60.17                   0.147861        -115.414         0.988819         154.354         0.989005         154.345         0.147944        -115.909
60.18                   0.148202        -115.459         0.988776         154.309         0.988954           154.3         0.148285        -115.953
60.19                    0.14854        -115.503         0.988734         154.265         0.988904         154.256         0.148622        -115.998
60.2                    0.148874        -115.547         0.988692         154.221         0.988855         154.212         0.148955        -116.041
60.21                   0.149204        -115.591         0.988652         154.177         0.988806         154.169         0.149284        -116.085
60.22                    0.14953        -115.635         0.988611         154.133         0.988758         154.126         0.149609        -116.128
60.23                   0.149853        -115.678         0.988572          154.09          0.98871         154.082          0.14993        -116.171
60.24                   0.150173        -115.721         0.988533         154.047         0.988662          154.04         0.150248        -116.213
60.25                   0.150489        -115.764         0.988494         154.004         0.988615         153.997         0.150562        -116.255
60.26                   0.150802        -115.806         0.988456         153.961         0.988569         153.954         0.150874        -116.297
60.27                   0.151112        -115.848         0.988418         153.919         0.988522         153.912         0.151182        -116.339
60.28                    0.15142         -115.89          0.98838         153.876         0.988476          153.87         0.151487         -116.38
60.29                   0.151724        -115.932         0.988343         153.834         0.988431         153.828          0.15179        -116.421
60.3                    0.152026        -115.974         0.988306         153.792         0.988385         153.786         0.152089        -116.462
60.31                   0.152325        -116.015         0.988269          153.75          0.98834         153.745         0.152386        -116.503
60.32                   0.152622        -116.057         0.988232         153.709         0.988296         153.703         0.152681        -116.543
60.33                   0.152916        -116.098         0.988196         153.667         0.988251         153.662         0.152973        -116.584
60.34                   0.153208        -116.139         0.988159         153.626         0.988207         153.621         0.153263        -116.624
60.35                   0.153498         -116.18         0.988123         153.584         0.988163          153.58          0.15355        -116.664
60.36                   0.153785         -116.22         0.988087         153.543         0.988119         153.539         0.153835        -116.704
60.37                   0.154071        -116.261         0.988051         153.502         0.988076         153.498         0.154118        -116.744
60.38                   0.154354        -116.301         0.988015         153.461         0.988032         153.457         0.154399        -116.783
60.39                   0.154636        -116.342         0.987979          153.42         0.987989         153.417         0.154678        -116.823
60.4                    0.154915        -116.382         0.987943          153.38         0.987946         153.376         0.154955        -116.862
60.41                   0.155193        -116.422         0.987907         153.339         0.987903         153.336         0.155231        -116.902
60.42                   0.155469        -116.462         0.987871         153.299         0.987861         153.295         0.155504        -116.941
60.43                   0.155743        -116.502         0.987836         153.258         0.987818         153.255         0.155776         -116.98
60.44                   0.156016        -116.542           0.9878         153.218         0.987776         153.215         0.156046        -117.019
60.45                   0.156286        -116.582         0.987764         153.178         0.987734         153.175         0.156315        -117.058
60.46                   0.156556        -116.622         0.987728         153.137         0.987692         153.135         0.156582        -117.097
60.47                   0.156824        -116.661         0.987692         153.097          0.98765         153.095         0.156847        -117.136
60.48                    0.15709        -116.701         0.987656         153.057         0.987608         153.055         0.157112        -117.175
60.49                   0.157355        -116.741          0.98762         153.017         0.987567         153.015         0.157374        -117.214
60.5                    0.157619         -116.78         0.987584         152.978         0.987525         152.976         0.157636        -117.253
60.51                   0.157881         -116.82         0.987548         152.938         0.987484         152.936         0.157896        -117.291
60.52                   0.158143        -116.859         0.987512         152.898         0.987442         152.897         0.158155         -117.33
60.53                   0.158402        -116.898         0.987476         152.858         0.987401         152.857         0.158413        -117.369
60.54                   0.158661        -116.938         0.987439         152.819          0.98736         152.818          0.15867        -117.407
60.55                   0.158919        -116.977         0.987403         152.779         0.987319         152.778         0.158925        -117.446
60.56                   0.159175        -117.016         0.987367          152.74         0.987278         152.739          0.15918        -117.484
60.57                   0.159431        -117.055          0.98733           152.7         0.987237           152.7         0.159433        -117.523
60.58                   0.159685        -117.094         0.987294         152.661         0.987196          152.66         0.159686        -117.561
60.59                   0.159939        -117.133         0.987257         152.622         0.987155         152.621         0.159937          -117.6
60.6                    0.160191        -117.172          0.98722         152.582         0.987114         152.582         0.160188        -117.638
60.61                   0.160443        -117.212         0.987183         152.543         0.987074         152.543         0.160438        -117.676
60.62                   0.160694        -117.251         0.987146         152.504         0.987033         152.504         0.160687        -117.715
60.63                   0.160944         -117.29         0.987109         152.465         0.986992         152.465         0.160935        -117.753
60.64                   0.161193        -117.329         0.987072         152.426         0.986952         152.426         0.161182        -117.791
60.65                   0.161441        -117.367         0.987035         152.387         0.986911         152.387         0.161429         -117.83
60.66                   0.161689        -117.406         0.986997         152.348         0.986871         152.348         0.161675        -117.868
60.67                   0.161936        -117.445          0.98696         152.309          0.98683         152.309          0.16192        -117.906
60.68                   0.162182        -117.484         0.986922          152.27          0.98679          152.27         0.162165        -117.945
60.69                   0.162428        -117.523         0.986884         152.231         0.986749         152.231         0.162409        -117.983
60.7                    0.162673        -117.562         0.986847         152.192         0.986709         152.192         0.162652        -118.021
60.71                   0.162917        -117.601         0.986809         152.153         0.986668         152.154         0.162895         -118.06
60.72                   0.163161         -117.64         0.986771         152.114         0.986628         152.115         0.163138        -118.098
60.73                   0.163404        -117.679         0.986732         152.076         0.986588         152.076         0.163379        -118.136
60.74                   0.163647        -117.717         0.986694         152.037         0.986547         152.037         0.163621        -118.175
60.75                   0.163889        -117.756         0.986656         151.998         0.986507         151.999         0.163862        -118.213
60.76                   0.164131        -117.795         0.986617         151.959         0.986466          151.96         0.164102        -118.251
60.77                   0.164372        -117.834         0.986579          151.92         0.986426         151.921         0.164343        -118.289
60.78                   0.164613        -117.873          0.98654         151.882         0.986385         151.883         0.164582        -118.328
60.79                   0.164854        -117.911         0.986501         151.843         0.986345         151.844         0.164822        -118.366
60.8                    0.165094         -117.95         0.986462         151.804         0.986304         151.805         0.165061        -118.404
60.81                   0.165334        -117.989         0.986423         151.766         0.986264         151.767           0.1653        -118.443
60.82                   0.165574        -118.028         0.986383         151.727         0.986223         151.728         0.165538        -118.481
60.83                   0.165813        -118.067         0.986344         151.688         0.986183         151.689         0.165777        -118.519
60.84                   0.166052        -118.105         0.986304          151.65         0.986142         151.651         0.166015        -118.558
60.85                   0.166291        -118.144         0.986265         151.611         0.986102         151.612         0.166253        -118.596
60.86                    0.16653        -118.183         0.986225         151.572         0.986061         151.573         0.166491        -118.635
60.87                   0.166768        -118.222         0.986185         151.534          0.98602         151.535         0.166729        -118.673
60.88                   0.167007        -118.261         0.986145         151.495         0.985979         151.496         0.166966        -118.711
60.89                   0.167245          -118.3         0.986104         151.456         0.985938         151.457         0.167204         -118.75
60.9                    0.167483        -118.339         0.986064         151.418         0.985897         151.419         0.167441        -118.788
60.91                   0.167721        -118.377         0.986023         151.379         0.985856          151.38         0.167679        -118.827
60.92                   0.167959        -118.416         0.985983          151.34         0.985815         151.342         0.167916        -118.865
60.93                   0.168198        -118.455         0.985942         151.302         0.985774         151.303         0.168154        -118.904
60.94                   0.168436        -118.494         0.985901         151.263         0.985733         151.264         0.168391        -118.942
60.95                   0.168674        -118.533          0.98586         151.224         0.985692         151.226         0.168629        -118.981
60.96                   0.168912        -118.572         0.985818         151.186          0.98565         151.187         0.168866         -119.02
60.97                   0.169151        -118.611         0.985777         151.147         0.985609         151.148         0.169104        -119.058
60.98                   0.169389         -118.65         0.985735         151.108         0.985567         151.109         0.169342        -119.097
60.99                   0.169628        -118.689         0.985693          151.07         0.985526         151.071         0.169581        -119.136
61                      0.169867        -118.728         0.985651         151.031         0.985484         151.032         0.169819        -119.174
61.01                   0.170106        -118.767         0.985609         150.992         0.985442         150.993         0.170058        -119.213
61.02                   0.170345        -118.806         0.985567         150.953           0.9854         150.954         0.170297        -119.252
61.03                   0.170585        -118.845         0.985524         150.914         0.985358         150.915         0.170536        -119.291
61.04                   0.170825        -118.885         0.985481         150.876         0.985316         150.877         0.170776         -119.33
61.05                   0.171065        -118.924         0.985438         150.837         0.985273         150.838         0.171016        -119.368
61.06                   0.171306        -118.963         0.985395         150.798         0.985231         150.799         0.171257        -119.407
61.07                   0.171547        -119.002         0.985352         150.759         0.985188          150.76         0.171498        -119.446
61.08                   0.171789        -119.042         0.985308          150.72         0.985145         150.721         0.171739        -119.485
61.09                   0.172031        -119.081         0.985264         150.681         0.985102         150.682         0.171981        -119.525
61.1                    0.172274         -119.12          0.98522         150.642         0.985059         150.643         0.172224        -119.564
61.11                   0.172517         -119.16         0.985176         150.603         0.985016         150.604         0.172467        -119.603
61.12                   0.172761        -119.199         0.985132         150.564         0.984972         150.565         0.172711        -119.642
61.13                   0.173006        -119.239         0.985087         150.524         0.984928         150.525         0.172955        -119.681
61.14                   0.173251        -119.278         0.985042         150.485         0.984885         150.486         0.173201        -119.721
61.15                   0.173497        -119.318         0.984997         150.446          0.98484         150.447         0.173447         -119.76
61.16                   0.173744        -119.358         0.984951         150.407         0.984796         150.407         0.173694          -119.8
61.17                   0.173992        -119.397         0.984906         150.367         0.984752         150.368         0.173942        -119.839
61.18                   0.174241        -119.437         0.984859         150.328         0.984707         150.329          0.17419        -119.879
61.19                   0.174491        -119.477         0.984813         150.288         0.984662         150.289          0.17444        -119.919
61.2                    0.174742        -119.517         0.984767         150.249         0.984616         150.249         0.174691        -119.958
61.21                   0.174993        -119.557          0.98472         150.209         0.984571          150.21         0.174943        -119.998
61.22                   0.175246        -119.597         0.984672         150.169         0.984525          150.17         0.175196        -120.038
61.23                   0.175501        -119.637         0.984625         150.129         0.984479          150.13         0.175451        -120.078
61.24                   0.175756        -119.677         0.984577          150.09         0.984432          150.09         0.175706        -120.118
61.25                   0.176013        -119.718         0.984529          150.05         0.984386          150.05         0.175964        -120.158
61.26                   0.176272        -119.758          0.98448         150.009         0.984339          150.01         0.176222        -120.199
61.27                   0.176532        -119.799         0.984431         149.969         0.984291          149.97         0.176483        -120.239
61.28                   0.176793        -119.839         0.984381         149.929         0.984243          149.93         0.176744         -120.28
61.29                   0.177056         -119.88         0.984332         149.889         0.984195         149.889         0.177008         -120.32
61.3                    0.177322        -119.921         0.984281         149.848         0.984146         149.849         0.177273        -120.361
61.31                   0.177589        -119.962          0.98423         149.808         0.984097         149.808         0.177541        -120.402
61.32                   0.177858        -120.003         0.984179         149.767         0.984048         149.768          0.17781        -120.443
61.33                   0.178129        -120.044         0.984127         149.726         0.983998         149.727         0.178082        -120.484
61.34                   0.178402        -120.085         0.984075         149.685         0.983948         149.686         0.178355        -120.525
61.35                   0.178678        -120.127         0.984022         149.644         0.983897         149.644         0.178632        -120.567
61.36                   0.178956        -120.169         0.983969         149.603         0.983845         149.603          0.17891        -120.608
61.37                   0.179237         -120.21         0.983915         149.561         0.983793         149.562         0.179192         -120.65
61.38                   0.179521        -120.252          0.98386         149.519          0.98374          149.52         0.179476        -120.692
61.39                   0.179808        -120.294         0.983805         149.478         0.983687         149.478         0.179763        -120.734
61.4                    0.180098        -120.337         0.983749         149.436         0.983633         149.436         0.180054        -120.776
61.41                   0.180391        -120.379         0.983692         149.393         0.983578         149.394         0.180347        -120.819
61.42                   0.180688        -120.422         0.983635         149.351         0.983523         149.352         0.180645        -120.862
61.43                   0.180988        -120.465         0.983577         149.308         0.983466         149.309         0.180946        -120.905
61.44                   0.181293        -120.508         0.983518         149.266         0.983409         149.266         0.181251        -120.948
61.45                   0.181602        -120.552         0.983457         149.222         0.983351         149.223          0.18156        -120.991
61.46                   0.181915        -120.595         0.983396         149.179         0.983292          149.18         0.181874        -121.035
61.47                   0.182233        -120.639         0.983334         149.135         0.983232         149.136         0.182193        -121.079
61.48                   0.182556        -120.683         0.983271         149.091         0.983171         149.092         0.182517        -121.124
61.49                   0.182885        -120.728         0.983207         149.047         0.983109         149.048         0.182846        -121.168
61.5                     0.18322        -120.773         0.983141         149.002         0.983046         149.003         0.183182        -121.213
61.51                   0.183561        -120.818         0.983074         148.957         0.982981         148.958         0.183523        -121.259
61.52                   0.183908        -120.864         0.983006         148.912         0.982915         148.912         0.183872        -121.305
61.53                   0.184263         -120.91         0.982936         148.866         0.982847         148.866         0.184227        -121.351
61.54                   0.184625        -120.957         0.982865         148.819         0.982778          148.82          0.18459        -121.398
61.55                   0.184996        -121.004         0.982792         148.773         0.982707         148.773         0.184962        -121.445
61.56                   0.185376        -121.051         0.982717         148.725         0.982635         148.726         0.185342        -121.493
61.57                   0.185765        -121.099          0.98264         148.677          0.98256         148.678         0.185732        -121.541
61.58                   0.186165        -121.148         0.982561         148.629         0.982483          148.63         0.186133         -121.59
61.59                   0.186575        -121.198         0.982479          148.58         0.982404          148.58         0.186544         -121.64
61.6                    0.186998        -121.248         0.982395          148.53         0.982322          148.53         0.186968        -121.691
61.61                   0.187435        -121.298         0.982309         148.479         0.982238          148.48         0.187405        -121.742
61.62                   0.187885         -121.35         0.982219         148.427          0.98215         148.428         0.187857        -121.794
61.63                   0.188352        -121.403         0.982126         148.375          0.98206         148.376         0.188324        -121.847
61.64                   0.188835        -121.456         0.982029         148.321         0.981965         148.322         0.188808        -121.901
61.65                   0.189338        -121.511         0.981929         148.267         0.981867         148.268         0.189312        -121.956
61.66                   0.189861        -121.567         0.981824         148.211         0.981765         148.212         0.189836        -122.013
61.67                   0.190407        -121.624         0.981714         148.154         0.981657         148.155         0.190383        -122.071
61.68                   0.190978        -121.683         0.981599         148.095         0.981545         148.096         0.190955         -122.13
61.69                   0.191578        -121.743         0.981478         148.034         0.981427         148.036         0.191555        -122.191
61.7                    0.192208        -121.805         0.981351         147.972         0.981302         147.974         0.192187        -122.254
61.71                   0.192874        -121.869         0.981216         147.908         0.981169          147.91         0.192854        -122.319
61.72                   0.193579        -121.936         0.981073         147.841         0.981029         147.843          0.19356        -122.387
61.73                   0.194329        -122.005         0.980921         147.772         0.980879         147.774         0.194311        -122.457
61.74                   0.195129        -122.077         0.980757           147.7         0.980718         147.702         0.195112         -122.53
61.75                   0.195987        -122.152         0.980582         147.624         0.980545         147.627         0.195971        -122.607
61.76                    0.19691        -122.231         0.980392         147.545         0.980358         147.547         0.196895        -122.688
61.77                    0.19791        -122.315         0.980186         147.461         0.980154         147.464         0.197896        -122.773
61.78                   0.198998        -122.403         0.979961         147.372         0.979932         147.375         0.198985        -122.863
61.79                    0.20019        -122.498         0.979714         147.277         0.979687          147.28         0.200179         -122.96
61.8                    0.201505          -122.6         0.979439         147.174         0.979414         147.177         0.201495        -123.064
61.81                   0.202967         -122.71         0.979132         147.063          0.97911         147.066         0.202958        -123.177
61.82                   0.204606         -122.83         0.978785         146.941         0.978766         146.945         0.204598        -123.301
61.83                   0.206462        -122.963          0.97839         146.807         0.978372         146.811         0.206456        -123.438
61.84                   0.208587        -123.112         0.977933         146.657         0.977918         146.661         0.208582        -123.591
61.85                   0.211052         -123.28         0.977397         146.487         0.977385         146.491         0.211049        -123.764
61.86                   0.213955        -123.474         0.976759         146.291         0.976749         146.296         0.213953        -123.964
61.87                   0.217434        -123.702         0.975983         146.061         0.975975         146.066         0.217434        -124.199
61.88                   0.221694        -123.974         0.975015         145.785          0.97501          145.79         0.221696         -124.48
61.89                    0.22705        -124.311         0.973772         145.444         0.973769          145.45         0.227055        -124.828
61.9                     0.23401        -124.742         0.972111         145.008          0.97211         145.014         0.234018        -125.272
61.91                   0.243455        -125.318         0.969772         144.424         0.969775         144.431         0.243467        -125.867
61.92                   0.257053         -126.14         0.966232         143.593          0.96624         143.601         0.257073        -126.713
61.93                   0.278386        -127.423         0.960262         142.298         0.960279         142.306         0.278417         -128.03
61.94                    0.31675        -129.735         0.948215         139.969         0.948252         139.976         0.316806        -130.394
61.95                   0.405588          -135.2         0.913504          134.48         0.913599         134.484         0.405721        -135.945
61.96                   0.768663         -161.57         0.636797         108.162         0.636979           108.1         0.769337        -162.504
61.97                   0.311773         87.2443         0.949967         176.536         0.950037         176.536         0.311692         85.8393