! TOUCHSTONE file generated by CST MICROWAVE STUDIO
! Date and time: Fri Mar  8 11:09:29 2024
! Project name: material_angular.cst
! Parameters = {d=9.05; Yi=5; iiii=5; exis2=5; exis=5; X=5; Z=5; Y=2}
! Header version: 2018
! Port assignment regex: !\s*Touchstone port\s*([0-9]+)\s*=\s*(CST MWS port|CST DS port)\s*([0-9]+|Zmin|Zmax)\s*\(\"(.*)\"\)(\s*mode\s*([0-9]+))?.*
! Touchstone port assignment:
! Touchstone port 1 = CST MWS port 1 ("")
! Touchstone port 2 = CST MWS port 2 ("")
# GHz S MA R 376.7
60                       0.14058        -107.627         0.990043         162.451         0.989905         162.456          0.14058        -107.452
60.01                   0.140764         -107.66         0.990017         162.417         0.989882         162.422         0.140763        -107.484
60.02                   0.140948        -107.694         0.989991         162.383         0.989859         162.388         0.140946        -107.516
60.03                   0.141132        -107.728         0.989965         162.349         0.989836         162.354         0.141128        -107.548
60.04                   0.141316        -107.761         0.989939         162.316         0.989813          162.32         0.141311         -107.58
60.05                     0.1415        -107.795         0.989913         162.282          0.98979         162.286         0.141494        -107.612
60.06                   0.141684        -107.828         0.989887         162.248         0.989767         162.252         0.141677        -107.644
60.07                   0.141868        -107.862         0.989862         162.214         0.989744         162.218          0.14186        -107.676
60.08                   0.142052        -107.896         0.989836          162.18          0.98972         162.184         0.142043        -107.708
60.09                   0.142236        -107.929          0.98981         162.147         0.989697         162.151         0.142225         -107.74
60.1                    0.142419        -107.963         0.989784         162.113         0.989674         162.117         0.142408        -107.772
60.11                   0.142603        -107.996         0.989757         162.079          0.98965         162.083         0.142591        -107.804
60.12                   0.142787         -108.03         0.989731         162.045         0.989627         162.049         0.142774        -107.836
60.13                    0.14297        -108.064         0.989705         162.011         0.989604         162.015         0.142956        -107.868
60.14                   0.143154        -108.097         0.989679         161.978          0.98958         161.981         0.143139        -107.901
60.15                   0.143337        -108.131         0.989653         161.944         0.989557         161.947         0.143322        -107.933
60.16                   0.143521        -108.164         0.989627          161.91         0.989533         161.913         0.143504        -107.965
60.17                   0.143704        -108.198           0.9896         161.876         0.989509         161.879         0.143687        -107.997
60.18                   0.143887        -108.232         0.989574         161.843         0.989486         161.846         0.143869        -108.029
60.19                   0.144071        -108.265         0.989548         161.809         0.989462         161.812         0.144052        -108.061
60.2                    0.144254        -108.299         0.989521         161.775         0.989438         161.778         0.144235        -108.094
60.21                   0.144437        -108.333         0.989495         161.741         0.989415         161.744         0.144417        -108.126
60.22                    0.14462        -108.366         0.989469         161.708         0.989391          161.71           0.1446        -108.158
60.23                   0.144803          -108.4         0.989442         161.674         0.989367         161.676         0.144782         -108.19
60.24                   0.144986        -108.434         0.989416          161.64         0.989343         161.642         0.144965        -108.223
60.25                   0.145169        -108.467         0.989389         161.606         0.989319         161.608         0.145147        -108.255
60.26                   0.145352        -108.501         0.989363         161.572         0.989295         161.575          0.14533        -108.287
60.27                   0.145535        -108.535         0.989336         161.539         0.989271         161.541         0.145512         -108.32
60.28                   0.145717        -108.569          0.98931         161.505         0.989247         161.507         0.145695        -108.352
60.29                     0.1459        -108.602         0.989283         161.471         0.989223         161.473         0.145877        -108.384
60.3                    0.146083        -108.636         0.989257         161.437         0.989199         161.439         0.146059        -108.417
60.31                   0.146266         -108.67          0.98923         161.404         0.989175         161.405         0.146242        -108.449
60.32                   0.146448        -108.703         0.989203          161.37         0.989151         161.371         0.146424        -108.481
60.33                   0.146631        -108.737         0.989177         161.336         0.989127         161.338         0.146606        -108.514
60.34                   0.146813        -108.771          0.98915         161.302         0.989102         161.304         0.146789        -108.546
60.35                   0.146995        -108.805         0.989123         161.269         0.989078          161.27         0.146971        -108.579
60.36                   0.147178        -108.838         0.989096         161.235         0.989054         161.236         0.147153        -108.611
60.37                    0.14736        -108.872          0.98907         161.201         0.989029         161.202         0.147335        -108.643
60.38                   0.147542        -108.906         0.989043         161.167         0.989005         161.168         0.147518        -108.676
60.39                   0.147725         -108.94         0.989016         161.134         0.988981         161.134           0.1477        -108.708
60.4                    0.147907        -108.973         0.988989           161.1         0.988956         161.101         0.147882        -108.741
60.41                   0.148089        -109.007         0.988962         161.066         0.988932         161.067         0.148064        -108.773
60.42                   0.148271        -109.041         0.988935         161.032         0.988907         161.033         0.148246        -108.806
60.43                   0.148453        -109.075         0.988908         160.999         0.988882         160.999         0.148428        -108.838
60.44                   0.148635        -109.108         0.988881         160.965         0.988858         160.965          0.14861        -108.871
60.45                   0.148816        -109.142         0.988854         160.931         0.988833         160.931         0.148792        -108.903
60.46                   0.148998        -109.176         0.988827         160.897         0.988808         160.898         0.148974        -108.936
60.47                    0.14918         -109.21           0.9888         160.864         0.988784         160.864         0.149156        -108.969
60.48                   0.149362        -109.243         0.988773          160.83         0.988759          160.83         0.149338        -109.001
60.49                   0.149543        -109.277         0.988746         160.796         0.988734         160.796          0.14952        -109.034
60.5                    0.149725        -109.311         0.988718         160.762         0.988709         160.762         0.149702        -109.066
60.51                   0.149906        -109.345         0.988691         160.729         0.988684         160.728         0.149884        -109.099
60.52                   0.150088        -109.378         0.988664         160.695         0.988659         160.695         0.150066        -109.132
60.53                   0.150269        -109.412         0.988637         160.661         0.988634         160.661         0.150248        -109.164
60.54                   0.150451        -109.446         0.988609         160.627         0.988609         160.627         0.150429        -109.197
60.55                   0.150632         -109.48         0.988582         160.594         0.988584         160.593         0.150611         -109.23
60.56                   0.150813        -109.513         0.988555          160.56         0.988559         160.559         0.150793        -109.262
60.57                   0.150994        -109.547         0.988527         160.526         0.988534         160.526         0.150975        -109.295
60.58                   0.151176        -109.581           0.9885         160.492         0.988509         160.492         0.151156        -109.328
60.59                   0.151357        -109.615         0.988472         160.459         0.988484         160.458         0.151338         -109.36
60.6                    0.151538        -109.649         0.988445         160.425         0.988458         160.424          0.15152        -109.393
60.61                   0.151719        -109.682         0.988418         160.391         0.988433          160.39         0.151701        -109.426
60.62                   0.151899        -109.716          0.98839         160.357         0.988408         160.357         0.151883        -109.459
60.63                    0.15208         -109.75         0.988363         160.324         0.988382         160.323         0.152064        -109.491
60.64                   0.152261        -109.784         0.988335          160.29         0.988357         160.289         0.152246        -109.524
60.65                   0.152442        -109.818         0.988307         160.256         0.988332         160.255         0.152427        -109.557
60.66                   0.152623        -109.851          0.98828         160.223         0.988306         160.221         0.152609         -109.59
60.67                   0.152803        -109.885         0.988252         160.189         0.988281         160.188          0.15279        -109.623
60.68                   0.152984        -109.919         0.988224         160.155         0.988255         160.154         0.152972        -109.655
60.69                   0.153164        -109.953         0.988197         160.121          0.98823          160.12         0.153153        -109.688
60.7                    0.153345        -109.987         0.988169         160.088         0.988204         160.086         0.153334        -109.721
60.71                   0.153525         -110.02         0.988141         160.054         0.988178         160.052         0.153516        -109.754
60.72                   0.153705        -110.054         0.988113          160.02         0.988153         160.019         0.153697        -109.787
60.73                   0.153886        -110.088         0.988086         159.987         0.988127         159.985         0.153878         -109.82
60.74                   0.154066        -110.122         0.988058         159.953         0.988101         159.951         0.154059        -109.853
60.75                   0.154246        -110.155          0.98803         159.919         0.988075         159.917         0.154241        -109.885
60.76                   0.154426        -110.189         0.988002         159.885          0.98805         159.884         0.154422        -109.918
60.77                   0.154606        -110.223         0.987974         159.852         0.988024          159.85         0.154603        -109.951
60.78                   0.154786        -110.257         0.987946         159.818         0.987998         159.816         0.154784        -109.984
60.79                   0.154966        -110.291         0.987918         159.784         0.987972         159.782         0.154965        -110.017
60.8                    0.155146        -110.324          0.98789         159.751         0.987946         159.749         0.155146         -110.05
60.81                   0.155326        -110.358         0.987862         159.717          0.98792         159.715         0.155327        -110.083
60.82                   0.155506        -110.392         0.987834         159.683         0.987894         159.681         0.155508        -110.116
60.83                   0.155685        -110.426         0.987806         159.649         0.987868         159.647         0.155689        -110.149
60.84                   0.155865         -110.46         0.987778         159.616         0.987842         159.613          0.15587        -110.182
60.85                   0.156045        -110.493          0.98775         159.582         0.987815          159.58          0.15605        -110.215
60.86                   0.156224        -110.527         0.987722         159.548         0.987789         159.546         0.156231        -110.248
60.87                   0.156404        -110.561         0.987693         159.515         0.987763         159.512         0.156412        -110.281
60.88                   0.156583        -110.595         0.987665         159.481         0.987737         159.478         0.156593        -110.314
60.89                   0.156762        -110.629         0.987637         159.447          0.98771         159.445         0.156773        -110.347
60.9                    0.156942        -110.662         0.987609         159.414         0.987684         159.411         0.156954         -110.38
60.91                   0.157121        -110.696          0.98758          159.38         0.987658         159.377         0.157135        -110.413
60.92                     0.1573         -110.73         0.987552         159.346         0.987631         159.344         0.157315        -110.446
60.93                   0.157479        -110.764         0.987524         159.313         0.987605          159.31         0.157496        -110.479
60.94                   0.157658        -110.798         0.987495         159.279         0.987578         159.276         0.157676        -110.513
60.95                   0.157837        -110.831         0.987467         159.245         0.987552         159.242         0.157857        -110.546
60.96                   0.158016        -110.865         0.987439         159.211         0.987525         159.209         0.158037        -110.579
60.97                   0.158195        -110.899          0.98741         159.178         0.987499         159.175         0.158218        -110.612
60.98                   0.158374        -110.933         0.987382         159.144         0.987472         159.141         0.158398        -110.645
60.99                   0.158553        -110.966         0.987353          159.11         0.987445         159.107         0.158578        -110.678
61                      0.158731            -111         0.987325         159.077         0.987419         159.074         0.158759        -110.711
61.01                    0.15891        -111.034         0.987296         159.043         0.987392          159.04         0.158939        -110.744
61.02                   0.159089        -111.068         0.987267         159.009         0.987365         159.006         0.159119        -110.778
61.03                   0.159267        -111.102         0.987239         158.976         0.987338         158.973         0.159299        -110.811
61.04                   0.159446        -111.135          0.98721         158.942         0.987312         158.939         0.159479        -110.844
61.05                   0.159624        -111.169         0.987181         158.908         0.987285         158.905         0.159659        -110.877
61.06                   0.159803        -111.203         0.987153         158.875         0.987258         158.871          0.15984         -110.91
61.07                   0.159981        -111.237         0.987124         158.841         0.987231         158.838          0.16002        -110.944
61.08                   0.160159         -111.27         0.987095         158.807         0.987204         158.804         0.160199        -110.977
61.09                   0.160337        -111.304         0.987067         158.774         0.987177          158.77         0.160379         -111.01
61.1                    0.160516        -111.338         0.987038          158.74          0.98715         158.737         0.160559        -111.043
61.11                   0.160694        -111.372         0.987009         158.706         0.987123         158.703         0.160739        -111.077
61.12                   0.160872        -111.405          0.98698         158.673         0.987096         158.669         0.160919         -111.11
61.13                    0.16105        -111.439         0.986951         158.639         0.987069         158.635         0.161099        -111.143
61.14                   0.161228        -111.473         0.986922         158.605         0.987041         158.602         0.161278        -111.176
61.15                   0.161405        -111.507         0.986893         158.572         0.987014         158.568         0.161458         -111.21
61.16                   0.161583         -111.54         0.986864         158.538         0.986987         158.534         0.161638        -111.243
61.17                   0.161761        -111.574         0.986835         158.504          0.98696         158.501         0.161817        -111.276
61.18                   0.161939        -111.608         0.986806         158.471         0.986932         158.467         0.161997         -111.31
61.19                   0.162116        -111.642         0.986777         158.437         0.986905         158.433         0.162176        -111.343
61.2                    0.162294        -111.675         0.986748         158.403         0.986878           158.4         0.162356        -111.376
61.21                   0.162471        -111.709         0.986719          158.37          0.98685         158.366         0.162535         -111.41
61.22                   0.162649        -111.743          0.98669         158.336         0.986823         158.332         0.162715        -111.443
61.23                   0.162826        -111.777         0.986661         158.303         0.986795         158.299         0.162894        -111.476
61.24                   0.163003         -111.81         0.986632         158.269         0.986768         158.265         0.163073         -111.51
61.25                   0.163181        -111.844         0.986603         158.235          0.98674         158.231         0.163252        -111.543
61.26                   0.163358        -111.878         0.986574         158.202         0.986712         158.198         0.163432        -111.577
61.27                   0.163535        -111.911         0.986544         158.168         0.986685         158.164         0.163611         -111.61
61.28                   0.163712        -111.945         0.986515         158.134         0.986657          158.13          0.16379        -111.643
61.29                   0.163889        -111.979         0.986486         158.101         0.986629         158.097         0.163969        -111.677
61.3                    0.164066        -112.013         0.986456         158.067         0.986602         158.063         0.164148         -111.71
61.31                   0.164243        -112.046         0.986427         158.033         0.986574         158.029         0.164327        -111.744
61.32                    0.16442         -112.08         0.986398             158         0.986546         157.996         0.164506        -111.777
61.33                   0.164597        -112.114         0.986368         157.966         0.986518         157.962         0.164685        -111.811
61.34                   0.164774        -112.147         0.986339         157.933          0.98649         157.928         0.164864        -111.844
61.35                    0.16495        -112.181          0.98631         157.899         0.986463         157.895         0.165042        -111.877
61.36                   0.165127        -112.215          0.98628         157.865         0.986435         157.861         0.165221        -111.911
61.37                   0.165304        -112.249         0.986251         157.832         0.986407         157.827           0.1654        -111.944
61.38                    0.16548        -112.282         0.986221         157.798         0.986379         157.794         0.165578        -111.978
61.39                   0.165657        -112.316         0.986192         157.764         0.986351          157.76         0.165757        -112.011
61.4                    0.165833         -112.35         0.986162         157.731         0.986323         157.726         0.165935        -112.045
61.41                   0.166009        -112.383         0.986132         157.697         0.986294         157.693         0.166114        -112.078
61.42                   0.166186        -112.417         0.986103         157.664         0.986266         157.659         0.166292        -112.112
61.43                   0.166362        -112.451         0.986073          157.63         0.986238         157.626         0.166471        -112.145
61.44                   0.166538        -112.484         0.986043         157.596          0.98621         157.592         0.166649        -112.179
61.45                   0.166714        -112.518         0.986014         157.563         0.986182         157.558         0.166827        -112.213
61.46                    0.16689        -112.552         0.985984         157.529         0.986153         157.525         0.167006        -112.246
61.47                   0.167066        -112.585         0.985954         157.496         0.986125         157.491         0.167184         -112.28
61.48                   0.167242        -112.619         0.985925         157.462         0.986097         157.457         0.167362        -112.313
61.49                   0.167418        -112.653         0.985895         157.428         0.986068         157.424          0.16754        -112.347
61.5                    0.167594        -112.686         0.985865         157.395          0.98604          157.39         0.167718         -112.38
61.51                    0.16777         -112.72         0.985835         157.361         0.986012         157.357         0.167896        -112.414
61.52                   0.167945        -112.754         0.985805         157.327         0.985983         157.323         0.168074        -112.447
61.53                   0.168121        -112.787         0.985775         157.294         0.985955         157.289         0.168252        -112.481
61.54                   0.168296        -112.821         0.985746          157.26         0.985926         157.256          0.16843        -112.515
61.55                   0.168472        -112.854         0.985716         157.227         0.985898         157.222         0.168608        -112.548
61.56                   0.168647        -112.888         0.985686         157.193         0.985869         157.189         0.168785        -112.582
61.57                   0.168823        -112.922         0.985656          157.16          0.98584         157.155         0.168963        -112.616
61.58                   0.168998        -112.955         0.985626         157.126         0.985812         157.121         0.169141        -112.649
61.59                   0.169174        -112.989         0.985596         157.092         0.985783         157.088         0.169318        -112.683
61.6                    0.169349        -113.023         0.985566         157.059         0.985754         157.054         0.169496        -112.716
61.61                   0.169524        -113.056         0.985536         157.025         0.985726         157.021         0.169673         -112.75
61.62                   0.169699         -113.09         0.985505         156.992         0.985697         156.987         0.169851        -112.784
61.63                   0.169874        -113.123         0.985475         156.958         0.985668         156.953         0.170028        -112.817
61.64                   0.170049        -113.157         0.985445         156.924         0.985639          156.92         0.170205        -112.851
61.65                   0.170224        -113.191         0.985415         156.891          0.98561         156.886         0.170382        -112.885
61.66                   0.170399        -113.224         0.985385         156.857         0.985581         156.853          0.17056        -112.918
61.67                   0.170574        -113.258         0.985355         156.824         0.985552         156.819         0.170737        -112.952
61.68                   0.170749        -113.291         0.985324          156.79         0.985523         156.786         0.170914        -112.986
61.69                   0.170923        -113.325         0.985294         156.757         0.985494         156.752         0.171091         -113.02
61.7                    0.171098        -113.358         0.985264         156.723         0.985465         156.718         0.171268        -113.053
61.71                   0.171273        -113.392         0.985233         156.689         0.985436         156.685         0.171445        -113.087
61.72                   0.171447        -113.426         0.985203         156.656         0.985407         156.651         0.171622        -113.121
61.73                   0.171622        -113.459         0.985173         156.622         0.985378         156.618         0.171798        -113.154
61.74                   0.171796        -113.493         0.985142         156.589         0.985349         156.584         0.171975        -113.188
61.75                   0.171971        -113.526         0.985112         156.555          0.98532         156.551         0.172152        -113.222
61.76                   0.172145         -113.56         0.985081         156.522          0.98529         156.517         0.172328        -113.256
61.77                   0.172319        -113.593         0.985051         156.488         0.985261         156.484         0.172505        -113.289
61.78                   0.172493        -113.627         0.985021         156.455         0.985232          156.45         0.172681        -113.323
61.79                   0.172667        -113.661          0.98499         156.421         0.985202         156.416         0.172858        -113.357
61.8                    0.172842        -113.694         0.984959         156.387         0.985173         156.383         0.173034        -113.391
61.81                   0.173016        -113.728         0.984929         156.354         0.985144         156.349         0.173211        -113.424
61.82                    0.17319        -113.761         0.984898          156.32         0.985114         156.316         0.173387        -113.458
61.83                   0.173363        -113.795         0.984868         156.287         0.985085         156.282         0.173563        -113.492
61.84                   0.173537        -113.828         0.984837         156.253         0.985055         156.249         0.173739        -113.526
61.85                   0.173711        -113.862         0.984806          156.22         0.985026         156.215         0.173915         -113.56
61.86                   0.173885        -113.895         0.984776         156.186         0.984996         156.182         0.174091        -113.593
61.87                   0.174059        -113.929         0.984745         156.153         0.984967         156.148         0.174267        -113.627
61.88                   0.174232        -113.962         0.984714         156.119         0.984937         156.115         0.174443        -113.661
61.89                   0.174406        -113.996         0.984684         156.086         0.984907         156.081         0.174619        -113.695
61.9                    0.174579        -114.029         0.984653         156.052         0.984878         156.048         0.174795        -113.729
61.91                   0.174753        -114.063         0.984622         156.019         0.984848         156.014         0.174971        -113.762
61.92                   0.174926        -114.096         0.984591         155.985         0.984818         155.981         0.175146        -113.796
61.93                     0.1751         -114.13          0.98456         155.952         0.984789         155.947         0.175322         -113.83
61.94                   0.175273        -114.163          0.98453         155.918         0.984759         155.913         0.175498        -113.864
61.95                   0.175446        -114.197         0.984499         155.884         0.984729          155.88         0.175673        -113.898
61.96                   0.175619         -114.23         0.984468         155.851         0.984699         155.846         0.175848        -113.932