! TOUCHSTONE file generated by CST MICROWAVE STUDIO
! Date and time: Wed Feb 28 00:05:20 2024
! Project name: material_desal.cst
! Header version: 2018
! Port assignment regex: !\s*Touchstone port\s*([0-9]+)\s*=\s*(CST MWS port|CST DS port)\s*([0-9]+|Zmin|Zmax)\s*\(\"(.*)\"\)(\s*mode\s*([0-9]+))?.*
! Touchstone port assignment:
! Touchstone port 1 = CST MWS port 1 ("")
! Touchstone port 2 = CST MWS port 2 ("")
# GHz S MA R 376.7
60                      0.109268        -113.055         0.993957         156.945         0.993991         156.945         0.109257        -113.094
60.01                     0.1113          -113.2         0.993745         156.802         0.993741         156.806         0.111261        -113.249
60.02                   0.113229        -113.336         0.993538         156.665         0.993503         156.672         0.113165        -113.398
60.03                   0.115064        -113.465         0.993335         156.534         0.993275         156.543         0.114979        -113.542
60.04                   0.116811        -113.587         0.993137         156.408         0.993056         156.419         0.116709         -113.68
60.05                   0.118479        -113.704         0.992943         156.286         0.992846         156.299         0.118361        -113.813
60.06                   0.120073        -113.815         0.992754         156.169         0.992644         156.183         0.119942        -113.941
60.07                   0.121598        -113.923         0.992569         156.056          0.99245          156.07         0.121457        -114.065
60.08                    0.12306        -114.026         0.992389         155.947         0.992263         155.962          0.12291        -114.184
60.09                   0.124463        -114.126         0.992213          155.84         0.992082         155.856         0.124306          -114.3
60.1                    0.125812        -114.223         0.992041         155.737         0.991907         155.753         0.125648        -114.412
60.11                    0.12711        -114.317         0.991873         155.637         0.991738         155.653         0.126941        -114.521
60.12                    0.12836        -114.408         0.991709          155.54         0.991574         155.556         0.128187        -114.626
60.13                   0.129566        -114.497         0.991549         155.445         0.991415         155.461          0.12939        -114.729
60.14                   0.130731        -114.584         0.991393         155.353         0.991261         155.369         0.130552        -114.828
60.15                   0.131857        -114.668          0.99124         155.263         0.991111         155.278         0.131676        -114.925
60.16                   0.132946        -114.751         0.991091         155.175         0.990965          155.19         0.132764        -115.019
60.17                   0.134001        -114.832         0.990945         155.088         0.990823         155.104         0.133818        -115.111
60.18                   0.135024        -114.912         0.990802         155.004         0.990684         155.019         0.134841        -115.201
60.19                   0.136017         -114.99         0.990663         154.922         0.990549         154.936         0.135833        -115.288
60.2                    0.136981        -115.067         0.990526         154.841         0.990417         154.855         0.136797        -115.374
60.21                   0.137918        -115.143         0.990392         154.761         0.990289         154.775         0.137735        -115.457
60.22                    0.13883        -115.217         0.990261         154.683         0.990163         154.696         0.138647        -115.539
60.23                   0.139717         -115.29         0.990133         154.607         0.990039         154.619         0.139535        -115.619
60.24                   0.140581        -115.363         0.990007         154.531         0.989919         154.544           0.1404        -115.697
60.25                   0.141424        -115.434         0.989884         154.457         0.989801         154.469         0.141244        -115.774
60.26                   0.142247        -115.504         0.989762         154.385         0.989685         154.396         0.142068         -115.85
60.27                   0.143049        -115.574         0.989644         154.313         0.989571         154.323         0.142872        -115.923
60.28                   0.143834        -115.643         0.989527         154.242         0.989459         154.252         0.143657        -115.996
60.29                     0.1446         -115.71         0.989412         154.172          0.98935         154.182         0.144425        -116.067
60.3                     0.14535        -115.778           0.9893         154.104         0.989242         154.113         0.145176        -116.138
60.31                   0.146084        -115.844         0.989189         154.036         0.989136         154.044         0.145912        -116.207
60.32                   0.146803         -115.91          0.98908         153.969         0.989032         153.977         0.146632        -116.274
60.33                   0.147507        -115.975         0.988973         153.903         0.988929          153.91         0.147338        -116.341
60.34                   0.148197        -116.039         0.988868         153.837         0.988829         153.844         0.148029        -116.407
60.35                   0.148875        -116.103         0.988764         153.773         0.988729         153.779         0.148708        -116.472
60.36                   0.149539        -116.167         0.988662         153.709         0.988631         153.715         0.149374        -116.536
60.37                   0.150191         -116.23         0.988561         153.645         0.988534         153.651         0.150027        -116.599
60.38                   0.150832        -116.292         0.988462         153.583         0.988439         153.588          0.15067        -116.662
60.39                   0.151462        -116.354         0.988365         153.521         0.988345         153.526         0.151301        -116.723
60.4                     0.15208        -116.415         0.988268          153.46         0.988252         153.464         0.151921        -116.784
60.41                   0.152689        -116.476         0.988173         153.399          0.98816         153.403         0.152531        -116.844
60.42                   0.153288        -116.536         0.988079         153.339          0.98807         153.342         0.153131        -116.904
60.43                   0.153878        -116.597         0.987987         153.279          0.98798         153.282         0.153722        -116.962
60.44                   0.154458        -116.656         0.987895          153.22         0.987892         153.223         0.154304         -117.02
60.45                    0.15503        -116.715         0.987805         153.161         0.987804         153.164         0.154877        -117.078
60.46                   0.155594        -116.774         0.987716         153.103         0.987717         153.105         0.155442        -117.135
60.47                   0.156149        -116.833         0.987627         153.045         0.987632         153.047         0.155999        -117.191
60.48                   0.156697        -116.891          0.98754         152.988         0.987547         152.989         0.156548        -117.247
60.49                   0.157238        -116.949         0.987454         152.931         0.987463         152.932          0.15709        -117.302
60.5                    0.157771        -117.006         0.987369         152.874          0.98738         152.875         0.157624        -117.357
60.51                   0.158297        -117.063         0.987284         152.818         0.987297         152.819         0.158152        -117.412
60.52                   0.158817         -117.12           0.9872         152.762         0.987216         152.763         0.158673        -117.465
60.53                    0.15933        -117.177         0.987118         152.707         0.987135         152.707         0.159187        -117.519
60.54                   0.159838        -117.233         0.987036         152.652         0.987054         152.652         0.159696        -117.572
60.55                   0.160339        -117.289         0.986955         152.597         0.986975         152.597         0.160198        -117.625
60.56                   0.160834        -117.344         0.986874         152.543         0.986896         152.542         0.160695        -117.677
60.57                   0.161324          -117.4         0.986795         152.489         0.986817         152.488         0.161186        -117.729
60.58                   0.161809        -117.455         0.986716         152.435         0.986739         152.434         0.161671        -117.781
60.59                   0.162288         -117.51         0.986637         152.381         0.986662          152.38         0.162152        -117.832
60.6                    0.162763        -117.564         0.986559         152.328         0.986586         152.327         0.162627        -117.883
60.61                   0.163232        -117.619         0.986482         152.275         0.986509         152.273         0.163098        -117.933
60.62                   0.163697        -117.673         0.986406         152.222         0.986434         152.221         0.163564        -117.984
60.63                   0.164158        -117.727          0.98633          152.17         0.986359         152.168         0.164026        -118.034
60.64                   0.164614         -117.78         0.986255         152.118         0.986284         152.116         0.164483        -118.084
60.65                   0.165065        -117.834          0.98618         152.066          0.98621         152.063         0.164935        -118.133
60.66                   0.165513        -117.887         0.986106         152.014         0.986136         152.011         0.165384        -118.182
60.67                   0.165957         -117.94         0.986032         151.962         0.986063          151.96         0.165829        -118.231
60.68                   0.166397        -117.993         0.985959         151.911          0.98599         151.908          0.16627         -118.28
60.69                   0.166833        -118.046         0.985886          151.86         0.985917         151.857         0.166707        -118.329
60.7                    0.167265        -118.098         0.985813         151.809         0.985845         151.806         0.167141        -118.377
60.71                   0.167694         -118.15         0.985741         151.758         0.985773         151.755         0.167571        -118.425
60.72                    0.16812        -118.202          0.98567         151.708         0.985702         151.705         0.167998        -118.473
60.73                   0.168542        -118.254         0.985599         151.657         0.985631         151.654         0.168421        -118.521
60.74                   0.168962        -118.306         0.985528         151.607          0.98556         151.604         0.168842        -118.568
60.75                   0.169378        -118.358         0.985457         151.557          0.98549         151.554         0.169259        -118.616
60.76                   0.169791        -118.409         0.985387         151.507          0.98542         151.504         0.169673        -118.663
60.77                   0.170201         -118.46         0.985318         151.457          0.98535         151.454         0.170085         -118.71
60.78                   0.170608        -118.511         0.985248         151.408          0.98528         151.404         0.170493        -118.757
60.79                   0.171013        -118.562         0.985179         151.358         0.985211         151.355         0.170899        -118.804
60.8                    0.171415        -118.613         0.985111         151.309         0.985142         151.305         0.171302        -118.851
60.81                   0.171815        -118.664         0.985042          151.26         0.985073         151.256         0.171703        -118.897
60.82                   0.172212        -118.714         0.984974         151.211         0.985005         151.207         0.172101        -118.943
60.83                   0.172606        -118.765         0.984906         151.162         0.984937         151.158         0.172497         -118.99
60.84                   0.172998        -118.815         0.984839         151.113         0.984869         151.109          0.17289        -119.036
60.85                   0.173388        -118.865         0.984771         151.065         0.984801         151.061         0.173282        -119.082
60.86                   0.173776        -118.915         0.984704         151.016         0.984733         151.012         0.173671        -119.128
60.87                   0.174162        -118.965         0.984637         150.968         0.984666         150.964         0.174058        -119.174
60.88                   0.174545        -119.014          0.98457         150.919         0.984599         150.915         0.174443        -119.219
60.89                   0.174927        -119.064         0.984504         150.871         0.984531         150.867         0.174825        -119.265
60.9                    0.175306        -119.114         0.984438         150.823         0.984465         150.819         0.175206        -119.311
60.91                   0.175684        -119.163         0.984372         150.775         0.984398         150.771         0.175585        -119.356
60.92                    0.17606        -119.212         0.984306         150.727         0.984331         150.723         0.175963        -119.401
60.93                   0.176434        -119.261          0.98424         150.679         0.984265         150.675         0.176338        -119.447
60.94                   0.176806        -119.311         0.984174         150.631         0.984199         150.628         0.176712        -119.492
60.95                   0.177177         -119.36         0.984109         150.584         0.984133          150.58         0.177084        -119.537
60.96                   0.177546        -119.408         0.984044         150.536         0.984067         150.532         0.177454        -119.582
60.97                   0.177914        -119.457         0.983979         150.489         0.984001         150.485         0.177823        -119.627
60.98                    0.17828        -119.506         0.983914         150.441         0.983935         150.438         0.178191        -119.672
60.99                   0.178644        -119.555         0.983849         150.394          0.98387          150.39         0.178557        -119.717
61                      0.179007        -119.603         0.983784         150.347         0.983804         150.343         0.178922        -119.762
61.01                   0.179369        -119.652         0.983719         150.299         0.983739         150.296         0.179285        -119.807
61.02                   0.179729          -119.7         0.983655         150.252         0.983673         150.249         0.179647        -119.852
61.03                   0.180088        -119.748          0.98359         150.205         0.983608         150.201         0.180007        -119.897
61.04                   0.180446        -119.797         0.983526         150.158         0.983543         150.154         0.180367        -119.941
61.05                   0.180803        -119.845         0.983462         150.111         0.983478         150.108         0.180725        -119.986
61.06                   0.181158        -119.893         0.983397         150.064         0.983413         150.061         0.181082        -120.031
61.07                   0.181513        -119.941         0.983333         150.017         0.983348         150.014         0.181438        -120.075
61.08                   0.181866        -119.989         0.983269          149.97         0.983283         149.967         0.181793         -120.12
61.09                   0.182218        -120.037         0.983205         149.923         0.983218          149.92         0.182147        -120.165
61.1                     0.18257        -120.085         0.983141         149.877         0.983153         149.873           0.1825        -120.209
61.11                    0.18292        -120.132         0.983077          149.83         0.983088         149.827         0.182852        -120.254
61.12                    0.18327         -120.18         0.983013         149.783         0.983024          149.78         0.183204        -120.299
61.13                   0.183618        -120.228         0.982949         149.737         0.982959         149.733         0.183554        -120.343
61.14                   0.183966        -120.275         0.982885          149.69         0.982894         149.687         0.183903        -120.388
61.15                   0.184313        -120.323         0.982821         149.643         0.982829          149.64         0.184252        -120.432
61.16                   0.184659        -120.371         0.982758         149.597         0.982765         149.594           0.1846        -120.477
61.17                   0.185005        -120.418         0.982694          149.55           0.9827         149.547         0.184947        -120.521
61.18                   0.185349        -120.466          0.98263         149.504         0.982635         149.501         0.185294        -120.566
61.19                   0.185694        -120.513         0.982566         149.457         0.982571         149.454          0.18564        -120.611
61.2                    0.186037         -120.56         0.982502         149.411         0.982506         149.408         0.185985        -120.655
61.21                    0.18638        -120.608         0.982438         149.364         0.982441         149.361          0.18633          -120.7
61.22                   0.186722        -120.655         0.982374         149.318         0.982376         149.315         0.186674        -120.744
61.23                   0.187064        -120.703          0.98231         149.271         0.982311         149.269         0.187018        -120.789
61.24                   0.187406         -120.75         0.982246         149.225         0.982247         149.222         0.187361        -120.834
61.25                   0.187747        -120.797         0.982182         149.178         0.982182         149.176         0.187704        -120.878
61.26                   0.188087        -120.844         0.982118         149.132         0.982117         149.129         0.188046        -120.923
61.27                   0.188428        -120.892         0.982054         149.085         0.982052         149.083         0.188388        -120.968
61.28                   0.188767        -120.939         0.981989         149.039         0.981987         149.037          0.18873        -121.013
61.29                   0.189107        -120.986         0.981925         148.992         0.981921          148.99         0.189072        -121.057
61.3                    0.189446        -121.033         0.981861         148.946         0.981856         148.944         0.189413        -121.102
61.31                   0.189785        -121.081         0.981796         148.899         0.981791         148.897         0.189754        -121.147
61.32                   0.190124        -121.128         0.981731         148.853         0.981725         148.851         0.190095        -121.192
61.33                   0.190463        -121.175         0.981667         148.806          0.98166         148.804         0.190435        -121.237
61.34                   0.190802        -121.222         0.981602          148.76         0.981594         148.758         0.190776        -121.282
61.35                    0.19114         -121.27         0.981537         148.713         0.981529         148.711         0.191116        -121.327
61.36                   0.191479        -121.317         0.981472         148.666         0.981463         148.665         0.191456        -121.372
61.37                   0.191817        -121.364         0.981407          148.62         0.981397         148.618         0.191797        -121.417
61.38                   0.192156        -121.412         0.981341         148.573         0.981331         148.572         0.192137        -121.462
61.39                   0.192494        -121.459         0.981276         148.526         0.981264         148.525         0.192478        -121.508
61.4                    0.192833        -121.506          0.98121          148.48         0.981198         148.478         0.192818        -121.553
61.41                   0.193172        -121.554         0.981144         148.433         0.981132         148.432         0.193159        -121.598
61.42                   0.193511        -121.601         0.981078         148.386         0.981065         148.385         0.193499        -121.644
61.43                    0.19385        -121.648         0.981012         148.339         0.980998         148.338         0.193841        -121.689
61.44                   0.194189        -121.696         0.980946         148.292         0.980931         148.291         0.194182        -121.735
61.45                   0.194529        -121.743         0.980879         148.245         0.980864         148.244         0.194523        -121.781
61.46                   0.194869        -121.791         0.980813         148.198         0.980796         148.197         0.194865        -121.827
61.47                   0.195209        -121.838         0.980746         148.151         0.980729          148.15         0.195207        -121.872
61.48                    0.19555        -121.886         0.980679         148.104         0.980661         148.103          0.19555        -121.918
61.49                   0.195891        -121.934         0.980611         148.057         0.980593         148.056         0.195893        -121.964
61.5                    0.196233        -121.981         0.980544          148.01         0.980525         148.009         0.196237         -122.01
61.51                   0.196575        -122.029         0.980476         147.962         0.980456         147.962         0.196581        -122.057
61.52                   0.196918        -122.077         0.980408         147.915         0.980387         147.915         0.196926        -122.103
61.53                   0.197262        -122.125         0.980339         147.867         0.980318         147.867         0.197271        -122.149
61.54                   0.197606        -122.173         0.980271          147.82         0.980249          147.82         0.197617        -122.196
61.55                   0.197951        -122.221         0.980202         147.772          0.98018         147.772         0.197964        -122.242
61.56                   0.198297        -122.269         0.980133         147.724          0.98011         147.724         0.198311        -122.289
61.57                   0.198643        -122.317         0.980063         147.677          0.98004         147.677         0.198659        -122.336
61.58                   0.198991        -122.366         0.979993         147.629         0.979969         147.629         0.199008        -122.383
61.59                   0.199339        -122.414         0.979923         147.581         0.979899         147.581         0.199358         -122.43
61.6                    0.199689        -122.463         0.979853         147.532         0.979828         147.533          0.19971        -122.477
61.61                   0.200039        -122.511         0.979782         147.484         0.979756         147.484         0.200062        -122.525
61.62                    0.20039         -122.56         0.979711         147.436         0.979684         147.436         0.200415        -122.572
61.63                   0.200743        -122.609         0.979639         147.387         0.979612         147.388         0.200769         -122.62
61.64                   0.201097        -122.658         0.979567         147.339          0.97954         147.339         0.201124        -122.668
61.65                   0.201452        -122.707         0.979495          147.29         0.979467          147.29         0.201481        -122.716
61.66                   0.201809        -122.756         0.979422         147.241         0.979394         147.242         0.201839        -122.764
61.67                   0.202167        -122.805         0.979349         147.192          0.97932         147.193         0.202199        -122.812
61.68                   0.202526        -122.855         0.979275         147.143         0.979246         147.143          0.20256         -122.86
61.69                   0.202887        -122.904         0.979201         147.093         0.979171         147.094         0.202922        -122.909
61.7                     0.20325        -122.954         0.979127         147.044         0.979096         147.045         0.203286        -122.958
61.71                   0.203614        -123.004         0.979052         146.994          0.97902         146.995         0.203652        -123.007
61.72                    0.20398        -123.054         0.978976         146.944         0.978944         146.945         0.204019        -123.056
61.73                   0.204348        -123.105           0.9789         146.894         0.978868         146.895         0.204389        -123.106
61.74                   0.204718        -123.155         0.978823         146.844          0.97879         146.845          0.20476        -123.155
61.75                    0.20509        -123.206         0.978746         146.793         0.978713         146.795         0.205133        -123.205
61.76                   0.205464        -123.257         0.978668         146.743         0.978634         146.744         0.205509        -123.255
61.77                    0.20584        -123.308          0.97859         146.692         0.978555         146.693         0.205886        -123.305
61.78                   0.206218        -123.359          0.97851         146.641         0.978476         146.642         0.206266        -123.356
61.79                   0.206599         -123.41         0.978431         146.589         0.978395         146.591         0.206648        -123.407
61.8                    0.206983        -123.462          0.97835         146.538         0.978315         146.539         0.207033        -123.458
61.81                   0.207369        -123.514         0.978269         146.486         0.978233         146.488          0.20742        -123.509
61.82                   0.207758        -123.566         0.978187         146.434          0.97815         146.435          0.20781        -123.561
61.83                    0.20815        -123.619         0.978104         146.382         0.978067         146.383         0.208203        -123.613
61.84                   0.208544        -123.672         0.978021         146.329         0.977983         146.331         0.208599        -123.665
61.85                   0.208942        -123.725         0.977936         146.276         0.977899         146.278         0.208998        -123.718
61.86                   0.209343        -123.778         0.977851         146.223         0.977813         146.224           0.2094         -123.77
61.87                   0.209748        -123.832         0.977765         146.169         0.977726         146.171         0.209805        -123.824
61.88                   0.210156        -123.886         0.977678         146.115         0.977639         146.117         0.210214        -123.877
61.89                   0.210568         -123.94          0.97759         146.061          0.97755         146.063         0.210627        -123.931
61.9                    0.210983        -123.995         0.977501         146.006         0.977461         146.008         0.211043        -123.986
61.91                   0.211403         -124.05         0.977411         145.951          0.97737         145.953         0.211464         -124.04
61.92                   0.211827        -124.106          0.97732         145.896         0.977279         145.898         0.211888        -124.096
61.93                   0.212255        -124.162         0.977227          145.84         0.977186         145.842         0.212317        -124.151
61.94                   0.212688        -124.218         0.977134         145.783         0.977092         145.785         0.212751        -124.207
61.95                   0.213126        -124.275         0.977039         145.727         0.976997         145.729         0.213189        -124.264
61.96                   0.213568        -124.333         0.976943         145.669         0.976901         145.671         0.213632        -124.321
61.97                   0.214016         -124.39         0.976845         145.612         0.976803         145.614          0.21408        -124.378