! TOUCHSTONE file generated by CST MICROWAVE STUDIO
! Date and time: Sun Mar  3 12:09:17 2024
! Project name: material_angular.cst
! Parameters = {d=8.8; Yi=5; iiii=5; exis2=5; exis=5; X=5; Z=5; Y=2}
! Header version: 2018
! Port assignment regex: !\s*Touchstone port\s*([0-9]+)\s*=\s*(CST MWS port|CST DS port)\s*([0-9]+|Zmin|Zmax)\s*\(\"(.*)\"\)(\s*mode\s*([0-9]+))?.*
! Touchstone port assignment:
! Touchstone port 1 = CST MWS port 1 ("")
! Touchstone port 2 = CST MWS port 2 ("")
# GHz S MA R 376.7
60                      0.140633        -143.636         0.990034         126.414         0.989791         126.421          0.14067         -143.54
60.01                   0.140817        -143.675         0.990008         126.374         0.989765         126.381         0.140853        -143.579
60.02                      0.141        -143.715         0.989983         126.334         0.989739         126.341         0.141036        -143.618
60.03                   0.141184        -143.755         0.989957         126.294         0.989713         126.301         0.141219        -143.658
60.04                   0.141367        -143.795         0.989932         126.254         0.989687         126.261         0.141402        -143.697
60.05                   0.141551        -143.835         0.989906         126.214         0.989661         126.221         0.141585        -143.736
60.06                   0.141734        -143.875          0.98988         126.174         0.989635         126.181         0.141768        -143.776
60.07                   0.141917        -143.915         0.989855         126.135         0.989609         126.141         0.141951        -143.815
60.08                   0.142101        -143.955         0.989829         126.095         0.989583         126.101         0.142133        -143.854
60.09                   0.142284        -143.995         0.989803         126.055         0.989557         126.061         0.142316        -143.894
60.1                    0.142467        -144.034         0.989777         126.015         0.989531         126.021         0.142499        -143.933
60.11                    0.14265        -144.074         0.989751         125.975         0.989505         125.981         0.142682        -143.972
60.12                   0.142833        -144.114         0.989725         125.935         0.989479         125.941         0.142864        -144.012
60.13                   0.143016        -144.154           0.9897         125.895         0.989453         125.901         0.143047        -144.051
60.14                   0.143199        -144.194         0.989674         125.855         0.989427         125.862          0.14323        -144.091
60.15                   0.143382        -144.234         0.989648         125.815         0.989401         125.822         0.143412         -144.13
60.16                   0.143565        -144.274         0.989622         125.776         0.989375         125.782         0.143595        -144.169
60.17                   0.143748        -144.314         0.989596         125.736         0.989349         125.742         0.143777        -144.209
60.18                   0.143931        -144.353          0.98957         125.696         0.989323         125.702          0.14396        -144.248
60.19                   0.144114        -144.393         0.989543         125.656         0.989296         125.662         0.144142        -144.288
60.2                    0.144297        -144.433         0.989517         125.616          0.98927         125.622         0.144324        -144.327
60.21                   0.144479        -144.473         0.989491         125.576         0.989244         125.582         0.144507        -144.367
60.22                   0.144662        -144.513         0.989465         125.536         0.989218         125.542         0.144689        -144.406
60.23                   0.144845        -144.553         0.989439         125.496         0.989192         125.502         0.144871        -144.445
60.24                   0.145028        -144.593         0.989412         125.457         0.989166         125.462         0.145054        -144.485
60.25                    0.14521        -144.633         0.989386         125.417         0.989139         125.422         0.145236        -144.524
60.26                   0.145393        -144.673          0.98936         125.377         0.989113         125.382         0.145418        -144.564
60.27                   0.145575        -144.712         0.989333         125.337         0.989087         125.343           0.1456        -144.603
60.28                   0.145758        -144.752         0.989307         125.297         0.989061         125.303         0.145782        -144.643
60.29                    0.14594        -144.792         0.989281         125.257         0.989034         125.263         0.145965        -144.682
60.3                    0.146123        -144.832         0.989254         125.217         0.989008         125.223         0.146147        -144.721
60.31                   0.146305        -144.872         0.989228         125.178         0.988982         125.183         0.146329        -144.761
60.32                   0.146487        -144.912         0.989201         125.138         0.988955         125.143         0.146511          -144.8
60.33                    0.14667        -144.952         0.989175         125.098         0.988929         125.103         0.146693         -144.84
60.34                   0.146852        -144.992         0.989148         125.058         0.988903         125.063         0.146874        -144.879
60.35                   0.147034        -145.031         0.989121         125.018         0.988876         125.023         0.147056        -144.919
60.36                   0.147216        -145.071         0.989095         124.978          0.98885         124.984         0.147238        -144.958
60.37                   0.147398        -145.111         0.989068         124.939         0.988823         124.944          0.14742        -144.998
60.38                   0.147581        -145.151         0.989041         124.899         0.988797         124.904         0.147602        -145.037
60.39                   0.147763        -145.191         0.989015         124.859         0.988771         124.864         0.147783        -145.077
60.4                    0.147945        -145.231         0.988988         124.819         0.988744         124.824         0.147965        -145.116
60.41                   0.148127        -145.271         0.988961         124.779         0.988718         124.784         0.148147        -145.156
60.42                   0.148309        -145.311         0.988934          124.74         0.988691         124.744         0.148328        -145.195
60.43                    0.14849         -145.35         0.988907           124.7         0.988665         124.704          0.14851        -145.235
60.44                   0.148672         -145.39          0.98888          124.66         0.988638         124.665         0.148692        -145.274
60.45                   0.148854         -145.43         0.988854          124.62         0.988612         124.625         0.148873        -145.314
60.46                   0.149036         -145.47         0.988827          124.58         0.988585         124.585         0.149055        -145.353
60.47                   0.149218         -145.51           0.9888          124.54         0.988559         124.545         0.149236        -145.393
60.48                   0.149399         -145.55         0.988773         124.501         0.988532         124.505         0.149417        -145.432
60.49                   0.149581         -145.59         0.988745         124.461         0.988505         124.465         0.149599        -145.472
60.5                    0.149763         -145.63         0.988718         124.421         0.988479         124.425          0.14978        -145.511
60.51                   0.149944        -145.669         0.988691         124.381         0.988452         124.386         0.149961        -145.551
60.52                   0.150126        -145.709         0.988664         124.341         0.988426         124.346         0.150143         -145.59
60.53                   0.150307        -145.749         0.988637         124.302         0.988399         124.306         0.150324         -145.63
60.54                   0.150489        -145.789          0.98861         124.262         0.988372         124.266         0.150505        -145.669
60.55                    0.15067        -145.829         0.988582         124.222         0.988346         124.226         0.150686        -145.709
60.56                   0.150851        -145.869         0.988555         124.182         0.988319         124.186         0.150867        -145.749
60.57                   0.151033        -145.909         0.988528         124.143         0.988292         124.146         0.151048        -145.788
60.58                   0.151214        -145.949           0.9885         124.103         0.988266         124.107         0.151229        -145.828
60.59                   0.151395        -145.988         0.988473         124.063         0.988239         124.067          0.15141        -145.867
60.6                    0.151576        -146.028         0.988446         124.023         0.988212         124.027         0.151591        -145.907
60.61                   0.151757        -146.068         0.988418         123.983         0.988185         123.987         0.151772        -145.946
60.62                   0.151939        -146.108         0.988391         123.944         0.988159         123.947         0.151953        -145.986
60.63                    0.15212        -146.148         0.988363         123.904         0.988132         123.908         0.152134        -146.025
60.64                   0.152301        -146.188         0.988336         123.864         0.988105         123.868         0.152314        -146.065
60.65                   0.152482        -146.228         0.988308         123.824         0.988078         123.828         0.152495        -146.104
60.66                   0.152662        -146.267         0.988281         123.785         0.988051         123.788         0.152676        -146.144
60.67                   0.152843        -146.307         0.988253         123.745         0.988024         123.748         0.152856        -146.184
60.68                   0.153024        -146.347         0.988225         123.705         0.987998         123.708         0.153037        -146.223
60.69                   0.153205        -146.387         0.988198         123.665         0.987971         123.669         0.153218        -146.263
60.7                    0.153386        -146.427          0.98817         123.626         0.987944         123.629         0.153398        -146.302
60.71                   0.153566        -146.467         0.988142         123.586         0.987917         123.589         0.153579        -146.342
60.72                   0.153747        -146.507         0.988114         123.546          0.98789         123.549         0.153759        -146.381
60.73                   0.153928        -146.546         0.988087         123.506         0.987863         123.509         0.153939        -146.421
60.74                   0.154108        -146.586         0.988059         123.467         0.987836          123.47          0.15412        -146.461
60.75                   0.154289        -146.626         0.988031         123.427         0.987809          123.43           0.1543          -146.5
60.76                   0.154469        -146.666         0.988003         123.387         0.987782          123.39          0.15448         -146.54
60.77                    0.15465        -146.706         0.987975         123.347         0.987755          123.35         0.154661        -146.579
60.78                    0.15483        -146.746         0.987947         123.308         0.987728         123.311         0.154841        -146.619
60.79                    0.15501        -146.785         0.987919         123.268         0.987701         123.271         0.155021        -146.658
60.8                    0.155191        -146.825         0.987891         123.228         0.987674         123.231         0.155201        -146.698
60.81                   0.155371        -146.865         0.987863         123.188         0.987647         123.191         0.155381        -146.738
60.82                   0.155551        -146.905         0.987835         123.149         0.987619         123.151         0.155561        -146.777
60.83                   0.155731        -146.945         0.987807         123.109         0.987592         123.112         0.155741        -146.817
60.84                   0.155911        -146.985         0.987779         123.069         0.987565         123.072         0.155921        -146.856
60.85                   0.156091        -147.024          0.98775          123.03         0.987538         123.032         0.156101        -146.896
60.86                   0.156271        -147.064         0.987722          122.99         0.987511         122.992         0.156281        -146.936
60.87                   0.156451        -147.104         0.987694          122.95         0.987484         122.953          0.15646        -146.975
60.88                   0.156631        -147.144         0.987666          122.91         0.987456         122.913          0.15664        -147.015
60.89                   0.156811        -147.184         0.987637         122.871         0.987429         122.873          0.15682        -147.054
60.9                    0.156991        -147.224         0.987609         122.831         0.987402         122.833            0.157        -147.094
60.91                   0.157171        -147.263         0.987581         122.791         0.987375         122.794         0.157179        -147.134
60.92                    0.15735        -147.303         0.987552         122.752         0.987347         122.754         0.157359        -147.173
60.93                    0.15753        -147.343         0.987524         122.712          0.98732         122.714         0.157538        -147.213
60.94                    0.15771        -147.383         0.987496         122.672         0.987293         122.674         0.157718        -147.252
60.95                   0.157889        -147.423         0.987467         122.633         0.987265         122.635         0.157897        -147.292
60.96                   0.158069        -147.462         0.987439         122.593         0.987238         122.595         0.158077        -147.332
60.97                   0.158248        -147.502          0.98741         122.553         0.987211         122.555         0.158256        -147.371
60.98                   0.158428        -147.542         0.987381         122.513         0.987183         122.515         0.158435        -147.411
60.99                   0.158607        -147.582         0.987353         122.474         0.987156         122.476         0.158614         -147.45
61                      0.158786        -147.622         0.987324         122.434         0.987128         122.436         0.158794         -147.49
61.01                   0.158966        -147.662         0.987296         122.394         0.987101         122.396         0.158973         -147.53
61.02                   0.159145        -147.701         0.987267         122.355         0.987073         122.357         0.159152        -147.569
61.03                   0.159324        -147.741         0.987238         122.315         0.987046         122.317         0.159331        -147.609
61.04                   0.159503        -147.781         0.987209         122.275         0.987018         122.277          0.15951        -147.648
61.05                   0.159682        -147.821         0.987181         122.236         0.986991         122.237         0.159689        -147.688
61.06                   0.159861        -147.861         0.987152         122.196         0.986963         122.198         0.159868        -147.728
61.07                    0.16004          -147.9         0.987123         122.156         0.986936         122.158         0.160047        -147.767
61.08                   0.160219         -147.94         0.987094         122.117         0.986908         122.118         0.160226        -147.807
61.09                   0.160398         -147.98         0.987065         122.077         0.986881         122.079         0.160404        -147.847
61.1                    0.160577         -148.02         0.987036         122.037         0.986853         122.039         0.160583        -147.886
61.11                   0.160756        -148.059         0.987007         121.998         0.986825         121.999         0.160762        -147.926
61.12                   0.160935        -148.099         0.986978         121.958         0.986798         121.959         0.160941        -147.965
61.13                   0.161113        -148.139         0.986949         121.918          0.98677          121.92         0.161119        -148.005
61.14                   0.161292        -148.179          0.98692         121.879         0.986742          121.88         0.161298        -148.045
61.15                   0.161471        -148.219         0.986891         121.839         0.986715          121.84         0.161476        -148.084
61.16                   0.161649        -148.258         0.986862         121.799         0.986687         121.801         0.161655        -148.124
61.17                   0.161828        -148.298         0.986833          121.76         0.986659         121.761         0.161833        -148.164
61.18                   0.162006        -148.338         0.986804          121.72         0.986631         121.721         0.162011        -148.203
61.19                   0.162184        -148.378         0.986775         121.681         0.986604         121.682          0.16219        -148.243
61.2                    0.162363        -148.417         0.986746         121.641         0.986576         121.642         0.162368        -148.282
61.21                   0.162541        -148.457         0.986716         121.601         0.986548         121.602         0.162546        -148.322
61.22                   0.162719        -148.497         0.986687         121.562          0.98652         121.563         0.162724        -148.362
61.23                   0.162898        -148.537         0.986658         121.522         0.986492         121.523         0.162903        -148.401
61.24                   0.163076        -148.577         0.986628         121.482         0.986464         121.483         0.163081        -148.441
61.25                   0.163254        -148.616         0.986599         121.443         0.986436         121.444         0.163259        -148.481
61.26                   0.163432        -148.656          0.98657         121.403         0.986408         121.404         0.163437         -148.52
61.27                    0.16361        -148.696          0.98654         121.364          0.98638         121.364         0.163614         -148.56
61.28                   0.163788        -148.736         0.986511         121.324         0.986352         121.325         0.163792        -148.599
61.29                   0.163966        -148.775         0.986481         121.284         0.986324         121.285          0.16397        -148.639
61.3                    0.164144        -148.815         0.986452         121.245         0.986296         121.245         0.164148        -148.679
61.31                   0.164321        -148.855         0.986422         121.205         0.986268         121.206         0.164326        -148.718
61.32                   0.164499        -148.895         0.986393         121.165          0.98624         121.166         0.164503        -148.758
61.33                   0.164677        -148.934         0.986363         121.126         0.986212         121.126         0.164681        -148.798
61.34                   0.164854        -148.974         0.986334         121.086         0.986184         121.087         0.164859        -148.837
61.35                   0.165032        -149.014         0.986304         121.047         0.986156         121.047         0.165036        -148.877
61.36                   0.165209        -149.054         0.986274         121.007         0.986128         121.008         0.165214        -148.916
61.37                   0.165387        -149.093         0.986245         120.967           0.9861         120.968         0.165391        -148.956
61.38                   0.165564        -149.133         0.986215         120.928         0.986072         120.928         0.165568        -148.996
61.39                   0.165742        -149.173         0.986185         120.888         0.986043         120.889         0.165746        -149.035
61.4                    0.165919        -149.212         0.986156         120.849         0.986015         120.849         0.165923        -149.075
61.41                   0.166096        -149.252         0.986126         120.809         0.985987         120.809           0.1661        -149.115
61.42                   0.166273        -149.292         0.986096         120.769         0.985959          120.77         0.166277        -149.154
61.43                   0.166451        -149.332         0.986066          120.73         0.985931          120.73         0.166454        -149.194
61.44                   0.166628        -149.371         0.986036          120.69         0.985902         120.691         0.166631        -149.233
61.45                   0.166805        -149.411         0.986006         120.651         0.985874         120.651         0.166808        -149.273
61.46                   0.166982        -149.451         0.985976         120.611         0.985846         120.611         0.166985        -149.313
61.47                   0.167159         -149.49         0.985946         120.572         0.985817         120.572         0.167162        -149.352
61.48                   0.167336         -149.53         0.985916         120.532         0.985789         120.532         0.167339        -149.392
61.49                   0.167512         -149.57         0.985886         120.492          0.98576         120.493         0.167516        -149.432
61.5                    0.167689         -149.61         0.985856         120.453         0.985732         120.453         0.167693        -149.471
61.51                   0.167866        -149.649         0.985826         120.413         0.985704         120.413         0.167869        -149.511
61.52                   0.168043        -149.689         0.985796         120.374         0.985675         120.374         0.168046         -149.55
61.53                   0.168219        -149.729         0.985766         120.334         0.985647         120.334         0.168223         -149.59
61.54                   0.168396        -149.768         0.985736         120.295         0.985618         120.295         0.168399         -149.63
61.55                   0.168572        -149.808         0.985706         120.255          0.98559         120.255         0.168576        -149.669
61.56                   0.168749        -149.848         0.985675         120.215         0.985561         120.215         0.168752        -149.709
61.57                   0.168925        -149.887         0.985645         120.176         0.985533         120.176         0.168928        -149.749
61.58                   0.169101        -149.927         0.985615         120.136         0.985504         120.136         0.169105        -149.788
61.59                   0.169278        -149.967         0.985585         120.097         0.985475         120.097         0.169281        -149.828
61.6                    0.169454        -150.006         0.985554         120.057         0.985447         120.057         0.169457        -149.867
61.61                    0.16963        -150.046         0.985524         120.018         0.985418         120.018         0.169633        -149.907
61.62                   0.169806        -150.086         0.985494         119.978         0.985389         119.978         0.169809        -149.947
61.63                   0.169982        -150.125         0.985463         119.939         0.985361         119.938         0.169986        -149.986
61.64                   0.170158        -150.165         0.985433         119.899         0.985332         119.899         0.170162        -150.026
61.65                   0.170334        -150.205         0.985402          119.86         0.985303         119.859         0.170337        -150.065
61.66                    0.17051        -150.244         0.985372          119.82         0.985275          119.82         0.170513        -150.105
61.67                   0.170686        -150.284         0.985341          119.78         0.985246          119.78         0.170689        -150.145
61.68                   0.170862        -150.324         0.985311         119.741         0.985217         119.741         0.170865        -150.184
61.69                   0.171038        -150.363          0.98528         119.701         0.985188         119.701         0.171041        -150.224
61.7                    0.171213        -150.403          0.98525         119.662         0.985159         119.662         0.171216        -150.263
61.71                   0.171389        -150.443         0.985219         119.622          0.98513         119.622         0.171392        -150.303
61.72                   0.171564        -150.482         0.985189         119.583         0.985102         119.582         0.171568        -150.343
61.73                    0.17174        -150.522         0.985158         119.543         0.985073         119.543         0.171743        -150.382
61.74                   0.171915        -150.562         0.985127         119.504         0.985044         119.503         0.171919        -150.422
61.75                   0.172091        -150.601         0.985097         119.464         0.985015         119.464         0.172094        -150.462
61.76                   0.172266        -150.641         0.985066         119.425         0.984986         119.424         0.172269        -150.501
61.77                   0.172441         -150.68         0.985035         119.385         0.984957         119.385         0.172445        -150.541
61.78                   0.172617         -150.72         0.985004         119.346         0.984928         119.345          0.17262         -150.58
61.79                   0.172792         -150.76         0.984973         119.306         0.984899         119.306         0.172795         -150.62
61.8                    0.172967        -150.799         0.984943         119.267          0.98487         119.266          0.17297         -150.66
61.81                   0.173142        -150.839         0.984912         119.227         0.984841         119.227         0.173145        -150.699
61.82                   0.173317        -150.879         0.984881         119.188         0.984812         119.187          0.17332        -150.739
61.83                   0.173492        -150.918          0.98485         119.148         0.984782         119.148         0.173495        -150.778
61.84                   0.173667        -150.958         0.984819         119.109         0.984753         119.108          0.17367        -150.818
61.85                   0.173842        -150.997         0.984788         119.069         0.984724         119.069         0.173845        -150.857
61.86                   0.174016        -151.037         0.984757          119.03         0.984695         119.029          0.17402        -150.897
61.87                   0.174191        -151.077         0.984726          118.99         0.984666          118.99         0.174194        -150.937
61.88                   0.174366        -151.116         0.984695         118.951         0.984637          118.95         0.174369        -150.976
61.89                    0.17454        -151.156         0.984664         118.911         0.984607         118.911         0.174544        -151.016
61.9                    0.174715        -151.195         0.984633         118.872         0.984578         118.871         0.174718        -151.055
61.91                   0.174889        -151.235         0.984602         118.832         0.984549         118.832         0.174893        -151.095
61.92                   0.175064        -151.275         0.984571         118.793         0.984519         118.792         0.175067        -151.135
61.93                   0.175238        -151.314         0.984539         118.753          0.98449         118.753         0.175241        -151.174
61.94                   0.175412        -151.354         0.984508         118.714         0.984461         118.713         0.175416        -151.214
61.95                   0.175587        -151.393         0.984477         118.674         0.984431         118.674          0.17559        -151.253
61.96                   0.175761        -151.433         0.984446         118.635         0.984402         118.634         0.175764        -151.293