! TOUCHSTONE file generated by CST MICROWAVE STUDIO
! Date and time: Tue Feb 27 21:04:24 2024
! Project name: material_angular.cst
! Parameters = {exis2=3; exis=5; X=5; Z=5; Y=2}
! Header version: 2018
! Port assignment regex: !\s*Touchstone port\s*([0-9]+)\s*=\s*(CST MWS port|CST DS port)\s*([0-9]+|Zmin|Zmax)\s*\(\"(.*)\"\)(\s*mode\s*([0-9]+))?.*
! Touchstone port assignment:
! Touchstone port 1 = CST MWS port 1 ("")
! Touchstone port 2 = CST MWS port 2 ("")
# GHz S MA R 376.7
60                      0.116272        -75.9915         0.993223         156.542         0.993243         156.539         0.116292        -150.942
60.01                   0.116444        -76.0136         0.993207         156.507         0.993219         156.502         0.116468        -150.996
60.02                   0.116616        -76.0357         0.993191         156.471         0.993195         156.466         0.116644         -151.05
60.03                   0.116788        -76.0579         0.993175         156.435         0.993171          156.43          0.11682        -151.104
60.04                    0.11696        -76.0801         0.993159         156.399         0.993146         156.394         0.116996        -151.157
60.05                   0.117131        -76.1024         0.993143         156.363         0.993122         156.358         0.117172        -151.211
60.06                   0.117303        -76.1246         0.993126         156.328         0.993098         156.322         0.117348        -151.264
60.07                   0.117475        -76.1469          0.99311         156.292         0.993074         156.285         0.117523        -151.317
60.08                   0.117646        -76.1692         0.993094         156.256          0.99305         156.249         0.117699         -151.37
60.09                   0.117818        -76.1916         0.993077          156.22         0.993026         156.213         0.117875        -151.424
60.1                    0.117989         -76.214          0.99306         156.184         0.993002         156.177          0.11805        -151.477
60.11                   0.118161        -76.2364         0.993044         156.148         0.992979         156.141         0.118225         -151.53
60.12                   0.118332        -76.2588         0.993027         156.113         0.992955         156.105         0.118401        -151.582
60.13                   0.118504        -76.2813          0.99301         156.077         0.992931         156.069         0.118576        -151.635
60.14                   0.118675        -76.3038         0.992993         156.041         0.992907         156.033         0.118751        -151.688
60.15                   0.118846        -76.3263         0.992976         156.005         0.992883         155.997         0.118926         -151.74
60.16                   0.119017        -76.3489         0.992959         155.969         0.992859          155.96         0.119101        -151.793
60.17                   0.119189        -76.3715         0.992942         155.934         0.992835         155.924         0.119276        -151.845
60.18                    0.11936        -76.3941         0.992925         155.898         0.992811         155.888          0.11945        -151.898
60.19                   0.119531        -76.4167         0.992908         155.862         0.992788         155.852         0.119625         -151.95
60.2                    0.119702        -76.4394          0.99289         155.826         0.992764         155.816           0.1198        -152.002
60.21                   0.119873        -76.4621         0.992873          155.79          0.99274          155.78         0.119974        -152.054
60.22                   0.120044        -76.4848         0.992856         155.755         0.992716         155.744         0.120149        -152.106
60.23                   0.120215        -76.5075         0.992838         155.719         0.992692         155.708         0.120323        -152.158
60.24                   0.120386        -76.5303         0.992821         155.683         0.992669         155.672         0.120497         -152.21
60.25                   0.120557        -76.5531         0.992803         155.647         0.992645         155.636         0.120671        -152.262
60.26                   0.120727        -76.5759         0.992785         155.612         0.992621           155.6         0.120845        -152.314
60.27                   0.120898        -76.5988         0.992767         155.576         0.992597         155.564          0.12102        -152.366
60.28                   0.121069        -76.6217          0.99275          155.54         0.992574         155.528         0.121193        -152.417
60.29                   0.121239        -76.6446         0.992732         155.504          0.99255         155.492         0.121367        -152.469
60.3                     0.12141        -76.6675         0.992714         155.468         0.992526         155.456         0.121541         -152.52
60.31                   0.121581        -76.6905         0.992696         155.433         0.992503          155.42         0.121715        -152.571
60.32                   0.121751        -76.7135         0.992678         155.397         0.992479         155.384         0.121888        -152.623
60.33                   0.121922        -76.7365         0.992659         155.361         0.992455         155.348         0.122062        -152.674
60.34                   0.122092        -76.7596         0.992641         155.325         0.992432         155.312         0.122235        -152.725
60.35                   0.122262        -76.7826         0.992623          155.29         0.992408         155.276         0.122409        -152.776
60.36                   0.122433        -76.8057         0.992605         155.254         0.992384          155.24         0.122582        -152.827
60.37                   0.122603        -76.8289         0.992586         155.218         0.992361         155.204         0.122755        -152.878
60.38                   0.122773         -76.852         0.992568         155.182         0.992337         155.168         0.122928        -152.929
60.39                   0.122943        -76.8752         0.992549         155.147         0.992314         155.132         0.123101         -152.98
60.4                    0.123113        -76.8984          0.99253         155.111          0.99229         155.096         0.123274         -153.03
60.41                   0.123283        -76.9216         0.992512         155.075         0.992267          155.06         0.123447        -153.081
60.42                   0.123453        -76.9449         0.992493         155.039         0.992243         155.024          0.12362        -153.132
60.43                   0.123623        -76.9682         0.992474         155.004          0.99222         154.988         0.123792        -153.182
60.44                   0.123793        -76.9915         0.992455         154.968         0.992196         154.952         0.123965        -153.232
60.45                   0.123963        -77.0148         0.992436         154.932         0.992173         154.916         0.124138        -153.283
60.46                   0.124133        -77.0382         0.992417         154.896         0.992149          154.88          0.12431        -153.333
60.47                   0.124303        -77.0616         0.992398         154.861         0.992126         154.844         0.124482        -153.383
60.48                   0.124472         -77.085         0.992379         154.825         0.992102         154.808         0.124654        -153.433
60.49                   0.124642        -77.1084          0.99236         154.789         0.992079         154.772         0.124827        -153.483
60.5                    0.124812        -77.1319         0.992341         154.754         0.992055         154.736         0.124999        -153.534
60.51                   0.124981        -77.1554         0.992322         154.718         0.992032           154.7         0.125171        -153.583
60.52                   0.125151        -77.1789         0.992302         154.682         0.992008         154.664         0.125343        -153.633
60.53                    0.12532        -77.2024         0.992283         154.646         0.991985         154.628         0.125514        -153.683
60.54                    0.12549         -77.226         0.992263         154.611         0.991962         154.592         0.125686        -153.733
60.55                   0.125659        -77.2496         0.992244         154.575         0.991938         154.556         0.125858        -153.783
60.56                   0.125828        -77.2732         0.992224         154.539         0.991915          154.52         0.126029        -153.832
60.57                   0.125997        -77.2969         0.992204         154.504         0.991892         154.484         0.126201        -153.882
60.58                   0.126167        -77.3205         0.992185         154.468         0.991868         154.448         0.126372        -153.931
60.59                   0.126336        -77.3442         0.992165         154.432         0.991845         154.412         0.126544        -153.981
60.6                    0.126505        -77.3679         0.992145         154.396         0.991822         154.377         0.126715         -154.03
60.61                   0.126674        -77.3917         0.992125         154.361         0.991798         154.341         0.126886        -154.079
60.62                   0.126843        -77.4154         0.992105         154.325         0.991775         154.305         0.127057        -154.129
60.63                   0.127012        -77.4392         0.992085         154.289         0.991752         154.269         0.127228        -154.178
60.64                    0.12718         -77.463         0.992065         154.254         0.991728         154.233         0.127399        -154.227
60.65                   0.127349        -77.4869         0.992045         154.218         0.991705         154.197         0.127569        -154.276
60.66                   0.127518        -77.5107         0.992025         154.182         0.991682         154.161          0.12774        -154.325
60.67                   0.127686        -77.5346         0.992005         154.147         0.991658         154.125         0.127911        -154.374
60.68                   0.127855        -77.5585         0.991984         154.111         0.991635         154.089         0.128081        -154.423
60.69                   0.128024        -77.5824         0.991964         154.075         0.991612         154.054         0.128252        -154.471
60.7                    0.128192        -77.6064         0.991944          154.04         0.991589         154.018         0.128422         -154.52
60.71                   0.128361        -77.6304         0.991923         154.004         0.991565         153.982         0.128592        -154.569
60.72                   0.128529        -77.6544         0.991903         153.968         0.991542         153.946         0.128762        -154.617
60.73                   0.128697        -77.6784         0.991882         153.932         0.991519          153.91         0.128933        -154.666
60.74                   0.128865        -77.7025         0.991861         153.897         0.991496         153.874         0.129103        -154.715
60.75                   0.129034        -77.7265         0.991841         153.861         0.991473         153.838         0.129272        -154.763
60.76                   0.129202        -77.7506          0.99182         153.825         0.991449         153.803         0.129442        -154.811
60.77                    0.12937        -77.7748         0.991799          153.79         0.991426         153.767         0.129612         -154.86
60.78                   0.129538        -77.7989         0.991778         153.754         0.991403         153.731         0.129782        -154.908
60.79                   0.129706        -77.8231         0.991757         153.718          0.99138         153.695         0.129951        -154.956
60.8                    0.129874        -77.8473         0.991736         153.683         0.991357         153.659         0.130121        -155.004
60.81                   0.130041        -77.8715         0.991715         153.647         0.991334         153.623          0.13029        -155.052
60.82                   0.130209        -77.8957         0.991694         153.612         0.991311         153.588         0.130459        -155.101
60.83                   0.130377          -77.92         0.991673         153.576         0.991287         153.552         0.130628        -155.149
60.84                   0.130545        -77.9443         0.991652          153.54         0.991264         153.516         0.130797        -155.196
60.85                   0.130712        -77.9686         0.991631         153.505         0.991241          153.48         0.130966        -155.244
60.86                    0.13088        -77.9929         0.991609         153.469         0.991218         153.444         0.131135        -155.292
60.87                   0.131047        -78.0173         0.991588         153.433         0.991195         153.409         0.131304         -155.34
60.88                   0.131214        -78.0417         0.991567         153.398         0.991172         153.373         0.131473        -155.388
60.89                   0.131382        -78.0661         0.991545         153.362         0.991149         153.337         0.131642        -155.435
60.9                    0.131549        -78.0905         0.991524         153.326         0.991126         153.301          0.13181        -155.483
60.91                   0.131716        -78.1149         0.991502         153.291         0.991103         153.265         0.131979         -155.53
60.92                   0.131883        -78.1394         0.991481         153.255          0.99108          153.23         0.132147        -155.578
60.93                    0.13205        -78.1639         0.991459         153.219         0.991057         153.194         0.132315        -155.625
60.94                   0.132217        -78.1884         0.991437         153.184         0.991034         153.158         0.132484        -155.673
60.95                   0.132384        -78.2129         0.991415         153.148         0.991011         153.122         0.132652         -155.72
60.96                   0.132551        -78.2375         0.991394         153.113         0.990987         153.086          0.13282        -155.767
60.97                   0.132718        -78.2621         0.991372         153.077         0.990964         153.051         0.132988        -155.815
60.98                   0.132885        -78.2867          0.99135         153.041         0.990941         153.015         0.133155        -155.862
60.99                   0.133051        -78.3113         0.991328         153.006         0.990918         152.979         0.133323        -155.909
61                      0.133218         -78.336         0.991306          152.97         0.990895         152.943         0.133491        -155.956
61.01                   0.133385        -78.3606         0.991284         152.934         0.990872         152.908         0.133658        -156.003
61.02                   0.133551        -78.3853         0.991262         152.899         0.990849         152.872         0.133826         -156.05
61.03                   0.133717        -78.4101          0.99124         152.863         0.990826         152.836         0.133993        -156.097
61.04                   0.133884        -78.4348         0.991217         152.828         0.990803           152.8         0.134161        -156.144
61.05                    0.13405        -78.4596         0.991195         152.792         0.990781         152.765         0.134328        -156.191
61.06                   0.134216        -78.4843         0.991173         152.756         0.990758         152.729         0.134495        -156.238
61.07                   0.134382        -78.5092          0.99115         152.721         0.990735         152.693         0.134662        -156.284
61.08                   0.134548         -78.534         0.991128         152.685         0.990712         152.658         0.134829        -156.331
61.09                   0.134714        -78.5588         0.991106          152.65         0.990689         152.622         0.134996        -156.378
61.1                     0.13488        -78.5837         0.991083         152.614         0.990666         152.586         0.135162        -156.424
61.11                   0.135046        -78.6086         0.991061         152.578         0.990643          152.55         0.135329        -156.471
61.12                   0.135212        -78.6335         0.991038         152.543          0.99062         152.515         0.135496        -156.517
61.13                   0.135378        -78.6585         0.991015         152.507         0.990597         152.479         0.135662        -156.564
61.14                   0.135543        -78.6834         0.990993         152.472         0.990574         152.443         0.135829         -156.61
61.15                   0.135709        -78.7084          0.99097         152.436         0.990551         152.408         0.135995        -156.657
61.16                   0.135874        -78.7334         0.990947           152.4         0.990528         152.372         0.136161        -156.703
61.17                    0.13604        -78.7584         0.990924         152.365         0.990505         152.336         0.136327        -156.749
61.18                   0.136205        -78.7835         0.990901         152.329         0.990482           152.3         0.136493        -156.795
61.19                    0.13637        -78.8085         0.990879         152.294         0.990459         152.265         0.136659        -156.841
61.2                    0.136536        -78.8336         0.990856         152.258         0.990437         152.229         0.136825        -156.888
61.21                   0.136701        -78.8587         0.990833         152.223         0.990414         152.193         0.136991        -156.934
61.22                   0.136866        -78.8839         0.990809         152.187         0.990391         152.158         0.137156         -156.98
61.23                   0.137031         -78.909         0.990786         152.151         0.990368         152.122         0.137322        -157.026
61.24                   0.137196        -78.9342         0.990763         152.116         0.990345         152.086         0.137487        -157.072
61.25                   0.137361        -78.9594          0.99074          152.08         0.990322         152.051         0.137653        -157.118
61.26                   0.137525        -78.9846         0.990717         152.045         0.990299         152.015         0.137818        -157.163
61.27                    0.13769        -79.0099         0.990694         152.009         0.990276         151.979         0.137983        -157.209
61.28                   0.137855        -79.0351          0.99067         151.974         0.990254         151.944         0.138148        -157.255
61.29                   0.138019        -79.0604         0.990647         151.938         0.990231         151.908         0.138313        -157.301
61.3                    0.138184        -79.0857         0.990624         151.903         0.990208         151.872         0.138478        -157.346
61.31                   0.138348         -79.111           0.9906         151.867         0.990185         151.837         0.138643        -157.392
61.32                   0.138512        -79.1364         0.990577         151.831         0.990162         151.801         0.138808        -157.438
61.33                   0.138677        -79.1618         0.990553         151.796         0.990139         151.766         0.138972        -157.483
61.34                   0.138841        -79.1872         0.990529          151.76         0.990117          151.73         0.139137        -157.529
61.35                   0.139005        -79.2126         0.990506         151.725         0.990094         151.694         0.139301        -157.574
61.36                   0.139169         -79.238         0.990482         151.689         0.990071         151.659         0.139466         -157.62
61.37                   0.139333        -79.2634         0.990459         151.654         0.990048         151.623          0.13963        -157.665
61.38                   0.139497        -79.2889         0.990435         151.618         0.990025         151.587         0.139794         -157.71
61.39                    0.13966        -79.3144         0.990411         151.583         0.990002         151.552         0.139958        -157.756
61.4                    0.139824        -79.3399         0.990387         151.547          0.98998         151.516         0.140122        -157.801
61.41                   0.139988        -79.3655         0.990363         151.512         0.989957         151.481         0.140286        -157.846
61.42                   0.140151         -79.391         0.990339         151.476         0.989934         151.445          0.14045        -157.891
61.43                   0.140315        -79.4166         0.990315         151.441         0.989911         151.409         0.140614        -157.936
61.44                   0.140478        -79.4422         0.990291         151.405         0.989888         151.374         0.140777        -157.981
61.45                   0.140642        -79.4678         0.990267         151.369         0.989866         151.338         0.140941        -158.027
61.46                   0.140805        -79.4935         0.990243         151.334         0.989843         151.303         0.141104        -158.072
61.47                   0.140968        -79.5191         0.990219         151.298          0.98982         151.267         0.141267        -158.117
61.48                   0.141131        -79.5448         0.990195         151.263         0.989797         151.231         0.141431        -158.161
61.49                   0.141294        -79.5705         0.990171         151.227         0.989775         151.196         0.141594        -158.206
61.5                    0.141457        -79.5963         0.990147         151.192         0.989752          151.16         0.141757        -158.251
61.51                    0.14162         -79.622         0.990123         151.156         0.989729         151.125          0.14192        -158.296
61.52                   0.141782        -79.6478         0.990098         151.121         0.989706         151.089         0.142082        -158.341
61.53                   0.141945        -79.6736         0.990074         151.085         0.989683         151.053         0.142245        -158.386
61.54                   0.142108        -79.6994          0.99005          151.05         0.989661         151.018         0.142408         -158.43
61.55                    0.14227        -79.7252         0.990025         151.014         0.989638         150.982          0.14257        -158.475
61.56                   0.142433        -79.7511         0.990001         150.979         0.989615         150.947         0.142733         -158.52
61.57                   0.142595        -79.7769         0.989976         150.943         0.989592         150.911         0.142895        -158.564
61.58                   0.142757        -79.8028         0.989952         150.908          0.98957         150.876         0.143058        -158.609
61.59                   0.142919        -79.8287         0.989927         150.872         0.989547          150.84          0.14322        -158.653
61.6                    0.143081        -79.8547         0.989903         150.837         0.989524         150.804         0.143382        -158.698
61.61                   0.143243        -79.8806         0.989878         150.801         0.989501         150.769         0.143544        -158.742
61.62                   0.143405        -79.9066         0.989853         150.766         0.989479         150.733         0.143706        -158.787
61.63                   0.143567        -79.9326         0.989829          150.73         0.989456         150.698         0.143867        -158.831
61.64                   0.143729        -79.9586         0.989804         150.695         0.989433         150.662         0.144029        -158.875
61.65                   0.143891        -79.9847         0.989779         150.659          0.98941         150.627         0.144191         -158.92
61.66                   0.144052        -80.0107         0.989754         150.624         0.989388         150.591         0.144352        -158.964
61.67                   0.144214        -80.0368         0.989729         150.588         0.989365         150.556         0.144514        -159.008
61.68                   0.144375        -80.0629         0.989705         150.553         0.989342          150.52         0.144675        -159.052
61.69                   0.144536         -80.089          0.98968         150.517         0.989319         150.485         0.144836        -159.096
61.7                    0.144698        -80.1152         0.989655         150.482         0.989297         150.449         0.144997        -159.141
61.71                   0.144859        -80.1413          0.98963         150.446         0.989274         150.414         0.145158        -159.185
61.72                    0.14502        -80.1675         0.989605         150.411         0.989251         150.378         0.145319        -159.229
61.73                   0.145181        -80.1937          0.98958         150.376         0.989228         150.342          0.14548        -159.273
61.74                   0.145342          -80.22         0.989555          150.34         0.989206         150.307         0.145641        -159.317
61.75                   0.145503        -80.2462          0.98953         150.305         0.989183         150.271         0.145801        -159.361
61.76                   0.145663        -80.2725         0.989504         150.269          0.98916         150.236         0.145962        -159.404
61.77                   0.145824        -80.2988         0.989479         150.234         0.989137           150.2         0.146122        -159.448
61.78                   0.145984        -80.3251         0.989454         150.198         0.989115         150.165         0.146283        -159.492
61.79                   0.146145        -80.3514         0.989429         150.163         0.989092         150.129         0.146443        -159.536
61.8                    0.146305        -80.3778         0.989404         150.127         0.989069         150.094         0.146603         -159.58
61.81                   0.146465        -80.4041         0.989378         150.092         0.989047         150.058         0.146763        -159.624
61.82                   0.146626        -80.4305         0.989353         150.056         0.989024         150.023         0.146923        -159.667
61.83                   0.146786        -80.4569         0.989328         150.021         0.989001         149.987         0.147083        -159.711
61.84                   0.146946        -80.4834         0.989302         149.985         0.988978         149.952         0.147243        -159.755
61.85                   0.147106        -80.5098         0.989277          149.95         0.988956         149.916         0.147402        -159.798
61.86                   0.147265        -80.5363         0.989251         149.914         0.988933         149.881         0.147562        -159.842
61.87                   0.147425        -80.5628         0.989226         149.879          0.98891         149.845         0.147721        -159.885
61.88                   0.147585        -80.5893           0.9892         149.844         0.988887          149.81         0.147881        -159.929
61.89                   0.147744        -80.6159         0.989175         149.808         0.988865         149.774          0.14804        -159.972
61.9                    0.147904        -80.6424         0.989149         149.773         0.988842         149.739         0.148199        -160.016
61.91                   0.148063         -80.669         0.989124         149.737         0.988819         149.704         0.148358        -160.059
61.92                   0.148222        -80.6956         0.989098         149.702         0.988797         149.668         0.148517        -160.103
61.93                   0.148381        -80.7222         0.989072         149.666         0.988774         149.633         0.148676        -160.146
61.94                    0.14854        -80.7489         0.989047         149.631         0.988751         149.597         0.148835        -160.189
61.95                   0.148699        -80.7755         0.989021         149.595         0.988728         149.562         0.148993        -160.232
61.96                   0.148858        -80.8022         0.988995          149.56         0.988706         149.526         0.149152        -160.276
61.97                   0.149017        -80.8289          0.98897         149.525         0.988683         149.491          0.14931        -160.319