! TOUCHSTONE file generated by CST MICROWAVE STUDIO
! Date and time: Fri Mar  8 11:09:30 2024
! Project name: material_angular.cst
! Parameters = {d=9.1; Yi=5; iiii=5; exis2=5; exis=5; X=5; Z=5; Y=2}
! Header version: 2018
! Port assignment regex: !\s*Touchstone port\s*([0-9]+)\s*=\s*(CST MWS port|CST DS port)\s*([0-9]+|Zmin|Zmax)\s*\(\"(.*)\"\)(\s*mode\s*([0-9]+))?.*
! Touchstone port assignment:
! Touchstone port 1 = CST MWS port 1 ("")
! Touchstone port 2 = CST MWS port 2 ("")
# GHz S MA R 376.7
60                        0.1406        -100.384          0.99014         169.663         0.989952         169.666         0.140624        -100.291
60.01                   0.140783        -100.417         0.990111          169.63         0.989924         169.634         0.140808        -100.323
60.02                   0.140966         -100.45         0.990082         169.597         0.989896         169.601         0.140991        -100.356
60.03                   0.141149        -100.483         0.990053         169.564         0.989869         169.568         0.141175        -100.389
60.04                   0.141332        -100.516         0.990024         169.532         0.989841         169.536         0.141358        -100.421
60.05                   0.141516        -100.549         0.989995         169.499         0.989813         169.503         0.141541        -100.454
60.06                   0.141699        -100.582         0.989967         169.466         0.989785          169.47         0.141725        -100.487
60.07                   0.141882        -100.615         0.989938         169.434         0.989757         169.438         0.141908        -100.519
60.08                   0.142065        -100.648         0.989909         169.401         0.989729         169.405         0.142091        -100.552
60.09                   0.142248        -100.681          0.98988         169.368         0.989701         169.372         0.142274        -100.585
60.1                     0.14243        -100.714         0.989851         169.336         0.989673          169.34         0.142457        -100.617
60.11                   0.142613        -100.746         0.989823         169.303         0.989645         169.307          0.14264         -100.65
60.12                   0.142796        -100.779         0.989794          169.27         0.989617         169.274         0.142823        -100.683
60.13                   0.142979        -100.812         0.989765         169.238         0.989589         169.242         0.143006        -100.715
60.14                   0.143162        -100.845         0.989736         169.205         0.989561         169.209         0.143189        -100.748
60.15                   0.143344        -100.878         0.989707         169.172         0.989533         169.176         0.143372        -100.781
60.16                   0.143527        -100.911         0.989678         169.139         0.989505         169.144         0.143555        -100.813
60.17                    0.14371        -100.944         0.989649         169.107         0.989477         169.111         0.143738        -100.846
60.18                   0.143892        -100.977         0.989621         169.074         0.989449         169.078         0.143921        -100.879
60.19                   0.144075        -101.009         0.989592         169.041         0.989421         169.046         0.144103        -100.911
60.2                    0.144257        -101.042         0.989563         169.009         0.989393         169.013         0.144286        -100.944
60.21                    0.14444        -101.075         0.989534         168.976         0.989365          168.98         0.144469        -100.977
60.22                   0.144622        -101.108         0.989505         168.943         0.989337         168.948         0.144651        -101.009
60.23                   0.144804        -101.141         0.989476         168.911         0.989309         168.915         0.144834        -101.042
60.24                   0.144987        -101.174         0.989447         168.878         0.989281         168.882         0.145017        -101.075
60.25                   0.145169        -101.206         0.989418         168.845         0.989253          168.85         0.145199        -101.107
60.26                   0.145351        -101.239          0.98939         168.813         0.989225         168.817         0.145382         -101.14
60.27                   0.145533        -101.272         0.989361          168.78         0.989197         168.784         0.145564        -101.173
60.28                   0.145716        -101.305         0.989332         168.747         0.989169         168.752         0.145746        -101.205
60.29                   0.145898        -101.338         0.989303         168.715         0.989141         168.719         0.145929        -101.238
60.3                     0.14608        -101.371         0.989274         168.682         0.989113         168.687         0.146111        -101.271
60.31                   0.146262        -101.403         0.989245          168.65         0.989085         168.654         0.146293        -101.303
60.32                   0.146444        -101.436         0.989216         168.617         0.989057         168.621         0.146475        -101.336
60.33                   0.146626        -101.469         0.989187         168.584         0.989029         168.589         0.146658        -101.369
60.34                   0.146808        -101.502         0.989158         168.552         0.989001         168.556          0.14684        -101.401
60.35                    0.14699        -101.535         0.989129         168.519         0.988973         168.523         0.147022        -101.434
60.36                   0.147171        -101.568           0.9891         168.486         0.988945         168.491         0.147204        -101.466
60.37                   0.147353          -101.6         0.989071         168.454         0.988917         168.458         0.147386        -101.499
60.38                   0.147535        -101.633         0.989042         168.421         0.988889         168.425         0.147568        -101.532
60.39                   0.147717        -101.666         0.989013         168.388         0.988861         168.393          0.14775        -101.564
60.4                    0.147898        -101.699         0.988984         168.356         0.988833          168.36         0.147932        -101.597
60.41                    0.14808        -101.731         0.988956         168.323         0.988805         168.327         0.148114         -101.63
60.42                   0.148262        -101.764         0.988927         168.291         0.988777         168.295         0.148295        -101.662
60.43                   0.148443        -101.797         0.988898         168.258         0.988749         168.262         0.148477        -101.695
60.44                   0.148625         -101.83         0.988869         168.225         0.988721          168.23         0.148659        -101.728
60.45                   0.148806        -101.863          0.98884         168.193         0.988692         168.197         0.148841         -101.76
60.46                   0.148987        -101.895         0.988811          168.16         0.988664         168.164         0.149022        -101.793
60.47                   0.149169        -101.928         0.988782         168.127         0.988636         168.132         0.149204        -101.826
60.48                    0.14935        -101.961         0.988753         168.095         0.988608         168.099         0.149385        -101.858
60.49                   0.149531        -101.994         0.988724         168.062          0.98858         168.066         0.149567        -101.891
60.5                    0.149713        -102.026         0.988695          168.03         0.988552         168.034         0.149748        -101.924
60.51                   0.149894        -102.059         0.988666         167.997         0.988524         168.001          0.14993        -101.956
60.52                   0.150075        -102.092         0.988637         167.964         0.988496         167.969         0.150111        -101.989
60.53                   0.150256        -102.125         0.988608         167.932         0.988468         167.936         0.150292        -102.021
60.54                   0.150437        -102.157         0.988579         167.899         0.988439         167.903         0.150474        -102.054
60.55                   0.150618         -102.19         0.988549         167.867         0.988411         167.871         0.150655        -102.087
60.56                   0.150799        -102.223          0.98852         167.834         0.988383         167.838         0.150836        -102.119
60.57                    0.15098        -102.256         0.988491         167.801         0.988355         167.806         0.151017        -102.152
60.58                   0.151161        -102.288         0.988462         167.769         0.988327         167.773         0.151198        -102.185
60.59                   0.151342        -102.321         0.988433         167.736         0.988299          167.74         0.151379        -102.217
60.6                    0.151522        -102.354         0.988404         167.704         0.988271         167.708          0.15156         -102.25
60.61                   0.151703        -102.386         0.988375         167.671         0.988242         167.675         0.151741        -102.282
60.62                   0.151884        -102.419         0.988346         167.638         0.988214         167.642         0.151922        -102.315
60.63                   0.152065        -102.452         0.988317         167.606         0.988186          167.61         0.152103        -102.348
60.64                   0.152245        -102.485         0.988288         167.573         0.988158         167.577         0.152284         -102.38
60.65                   0.152426        -102.517         0.988259         167.541          0.98813         167.545         0.152465        -102.413
60.66                   0.152606         -102.55          0.98823         167.508         0.988102         167.512         0.152646        -102.446
60.67                   0.152787        -102.583         0.988201         167.476         0.988074         167.479         0.152826        -102.478
60.68                   0.152967        -102.615         0.988171         167.443         0.988045         167.447         0.153007        -102.511
60.69                   0.153147        -102.648         0.988142          167.41         0.988017         167.414         0.153188        -102.543
60.7                    0.153328        -102.681         0.988113         167.378         0.987989         167.382         0.153368        -102.576
60.71                   0.153508        -102.713         0.988084         167.345         0.987961         167.349         0.153549        -102.609
60.72                   0.153688        -102.746         0.988055         167.313         0.987933         167.317         0.153729        -102.641
60.73                   0.153869        -102.779         0.988026          167.28         0.987904         167.284          0.15391        -102.674
60.74                   0.154049        -102.811         0.987997         167.248         0.987876         167.251          0.15409        -102.707
60.75                   0.154229        -102.844         0.987967         167.215         0.987848         167.219          0.15427        -102.739
60.76                   0.154409        -102.877         0.987938         167.182          0.98782         167.186         0.154451        -102.772
60.77                   0.154589        -102.909         0.987909          167.15         0.987792         167.154         0.154631        -102.804
60.78                   0.154769        -102.942          0.98788         167.117         0.987763         167.121         0.154811        -102.837
60.79                   0.154949        -102.975         0.987851         167.085         0.987735         167.088         0.154991         -102.87
60.8                    0.155129        -103.007         0.987821         167.052         0.987707         167.056         0.155171        -102.902
60.81                   0.155308         -103.04         0.987792          167.02         0.987679         167.023         0.155351        -102.935
60.82                   0.155488        -103.073         0.987763         166.987         0.987651         166.991         0.155531        -102.967
60.83                   0.155668        -103.105         0.987734         166.955         0.987622         166.958         0.155711            -103
60.84                   0.155848        -103.138         0.987705         166.922         0.987594         166.926         0.155891        -103.033
60.85                   0.156027        -103.171         0.987675          166.89         0.987566         166.893         0.156071        -103.065
60.86                   0.156207        -103.203         0.987646         166.857         0.987538          166.86         0.156251        -103.098
60.87                   0.156386        -103.236         0.987617         166.824         0.987509         166.828         0.156431         -103.13
60.88                   0.156566        -103.268         0.987588         166.792         0.987481         166.795          0.15661        -103.163
60.89                   0.156745        -103.301         0.987558         166.759         0.987453         166.763          0.15679        -103.196
60.9                    0.156925        -103.334         0.987529         166.727         0.987425          166.73          0.15697        -103.228
60.91                   0.157104        -103.366           0.9875         166.694         0.987396         166.698         0.157149        -103.261
60.92                   0.157283        -103.399         0.987471         166.662         0.987368         166.665         0.157329        -103.293
60.93                   0.157462        -103.431         0.987441         166.629          0.98734         166.632         0.157508        -103.326
60.94                   0.157642        -103.464         0.987412         166.597         0.987312           166.6         0.157688        -103.358
60.95                   0.157821        -103.497         0.987383         166.564         0.987283         166.567         0.157867        -103.391
60.96                      0.158        -103.529         0.987353         166.532         0.987255         166.535         0.158046        -103.424
60.97                   0.158179        -103.562         0.987324         166.499         0.987227         166.502         0.158226        -103.456
60.98                   0.158358        -103.594         0.987295         166.467         0.987199          166.47         0.158405        -103.489
60.99                   0.158537        -103.627         0.987265         166.434          0.98717         166.437         0.158584        -103.521
61                      0.158716         -103.66         0.987236         166.402         0.987142         166.405         0.158763        -103.554
61.01                   0.158895        -103.692         0.987207         166.369         0.987114         166.372         0.158942        -103.586
61.02                   0.159073        -103.725         0.987177         166.337         0.987086          166.34         0.159121        -103.619
61.03                   0.159252        -103.757         0.987148         166.304         0.987057         166.307           0.1593        -103.652
61.04                   0.159431         -103.79         0.987118         166.272         0.987029         166.274         0.159479        -103.684
61.05                    0.15961        -103.822         0.987089         166.239         0.987001         166.242         0.159658        -103.717
61.06                   0.159788        -103.855          0.98706         166.207         0.986972         166.209         0.159837        -103.749
61.07                   0.159967        -103.887          0.98703         166.174         0.986944         166.177         0.160016        -103.782
61.08                   0.160145         -103.92         0.987001         166.142         0.986916         166.144         0.160194        -103.814
61.09                   0.160324        -103.953         0.986971         166.109         0.986887         166.112         0.160373        -103.847
61.1                    0.160502        -103.985         0.986942         166.077         0.986859         166.079         0.160552         -103.88
61.11                    0.16068        -104.018         0.986913         166.044         0.986831         166.047          0.16073        -103.912
61.12                   0.160859         -104.05         0.986883         166.012         0.986802         166.014         0.160909        -103.945
61.13                   0.161037        -104.083         0.986854         165.979         0.986774         165.982         0.161087        -103.977
61.14                   0.161215        -104.115         0.986824         165.947         0.986746         165.949         0.161266         -104.01
61.15                   0.161393        -104.148         0.986795         165.914         0.986718         165.917         0.161444        -104.042
61.16                   0.161571         -104.18         0.986765         165.882         0.986689         165.884         0.161622        -104.075
61.17                   0.161749        -104.213         0.986736          165.85         0.986661         165.852         0.161801        -104.107
61.18                   0.161927        -104.245         0.986706         165.817         0.986633         165.819         0.161979         -104.14
61.19                   0.162105        -104.278         0.986677         165.785         0.986604         165.787         0.162157        -104.172
61.2                    0.162283         -104.31         0.986647         165.752         0.986576         165.754         0.162335        -104.205
61.21                   0.162461        -104.343         0.986618          165.72         0.986547         165.722         0.162513        -104.238
61.22                   0.162639        -104.375         0.986588         165.687         0.986519         165.689         0.162691         -104.27
61.23                   0.162817        -104.408         0.986559         165.655         0.986491         165.657         0.162869        -104.303
61.24                   0.162994         -104.44         0.986529         165.622         0.986462         165.624         0.163047        -104.335
61.25                   0.163172        -104.473         0.986499          165.59         0.986434         165.592         0.163225        -104.368
61.26                    0.16335        -104.505          0.98647         165.557         0.986406         165.559         0.163403          -104.4
61.27                   0.163527        -104.538          0.98644         165.525         0.986377         165.527         0.163581        -104.433
61.28                   0.163705         -104.57         0.986411         165.493         0.986349         165.494         0.163758        -104.465
61.29                   0.163882        -104.603         0.986381          165.46         0.986321         165.462         0.163936        -104.498
61.3                    0.164059        -104.635         0.986351         165.428         0.986292         165.429         0.164114         -104.53
61.31                   0.164237        -104.668         0.986322         165.395         0.986264         165.397         0.164291        -104.563
61.32                   0.164414          -104.7         0.986292         165.363         0.986235         165.364         0.164469        -104.595
61.33                   0.164591        -104.733         0.986262          165.33         0.986207         165.332         0.164646        -104.628
61.34                   0.164768        -104.765         0.986233         165.298         0.986179         165.299         0.164824         -104.66
61.35                   0.164946        -104.798         0.986203         165.266          0.98615         165.267         0.165001        -104.693
61.36                   0.165123         -104.83         0.986173         165.233         0.986122         165.234         0.165178        -104.725
61.37                     0.1653        -104.862         0.986144         165.201         0.986094         165.202         0.165355        -104.758
61.38                   0.165477        -104.895         0.986114         165.168         0.986065         165.169         0.165533         -104.79
61.39                   0.165654        -104.927         0.986084         165.136         0.986037         165.137          0.16571        -104.823
61.4                     0.16583         -104.96         0.986055         165.103         0.986008         165.104         0.165887        -104.855
61.41                   0.166007        -104.992         0.986025         165.071          0.98598         165.072         0.166064        -104.888
61.42                   0.166184        -105.025         0.985995         165.039         0.985951         165.039         0.166241         -104.92
61.43                   0.166361        -105.057         0.985965         165.006         0.985923         165.007         0.166418        -104.953
61.44                   0.166537         -105.09         0.985936         164.974         0.985895         164.975         0.166595        -104.985
61.45                   0.166714        -105.122         0.985906         164.941         0.985866         164.942         0.166771        -105.018
61.46                    0.16689        -105.154         0.985876         164.909         0.985838          164.91         0.166948         -105.05
61.47                   0.167067        -105.187         0.985846         164.877         0.985809         164.877         0.167125        -105.083
61.48                   0.167243        -105.219         0.985816         164.844         0.985781         164.845         0.167301        -105.115
61.49                    0.16742        -105.252         0.985787         164.812         0.985752         164.812         0.167478        -105.148
61.5                    0.167596        -105.284         0.985757          164.78         0.985724          164.78         0.167655         -105.18
61.51                   0.167772        -105.316         0.985727         164.747         0.985696         164.747         0.167831        -105.213
61.52                   0.167949        -105.349         0.985697         164.715         0.985667         164.715         0.168008        -105.245
61.53                   0.168125        -105.381         0.985667         164.682         0.985639         164.683         0.168184        -105.278
61.54                   0.168301        -105.414         0.985637          164.65          0.98561          164.65          0.16836         -105.31
61.55                   0.168477        -105.446         0.985607         164.618         0.985582         164.618         0.168536        -105.343
61.56                   0.168653        -105.478         0.985578         164.585         0.985553         164.585         0.168713        -105.375
61.57                   0.168829        -105.511         0.985548         164.553         0.985525         164.553         0.168889        -105.408
61.58                   0.169005        -105.543         0.985518         164.521         0.985496          164.52         0.169065         -105.44
61.59                   0.169181        -105.575         0.985488         164.488         0.985468         164.488         0.169241        -105.473
61.6                    0.169356        -105.608         0.985458         164.456         0.985439         164.456         0.169417        -105.505
61.61                   0.169532         -105.64         0.985428         164.423         0.985411         164.423         0.169593        -105.537
61.62                   0.169708        -105.673         0.985398         164.391         0.985382         164.391         0.169769         -105.57
61.63                   0.169883        -105.705         0.985368         164.359         0.985354         164.358         0.169945        -105.602
61.64                   0.170059        -105.737         0.985338         164.326         0.985325         164.326          0.17012        -105.635
61.65                   0.170234         -105.77         0.985308         164.294         0.985297         164.294         0.170296        -105.667
61.66                    0.17041        -105.802         0.985278         164.262         0.985268         164.261         0.170472          -105.7
61.67                   0.170585        -105.834         0.985248         164.229          0.98524         164.229         0.170647        -105.732
61.68                   0.170761        -105.867         0.985218         164.197         0.985211         164.196         0.170823        -105.765
61.69                   0.170936        -105.899         0.985188         164.165         0.985183         164.164         0.170998        -105.797
61.7                    0.171111        -105.931         0.985158         164.132         0.985154         164.132         0.171174        -105.829
61.71                   0.171286        -105.964         0.985128           164.1         0.985126         164.099         0.171349        -105.862
61.72                   0.171461        -105.996         0.985097         164.068         0.985097         164.067         0.171524        -105.894
61.73                   0.171636        -106.028         0.985067         164.035         0.985069         164.034           0.1717        -105.927
61.74                   0.171811        -106.061         0.985037         164.003          0.98504         164.002         0.171875        -105.959
61.75                   0.171986        -106.093         0.985007         163.971         0.985011          163.97          0.17205        -105.992
61.76                   0.172161        -106.125         0.984977         163.938         0.984983         163.937         0.172225        -106.024
61.77                   0.172336        -106.158         0.984947         163.906         0.984954         163.905           0.1724        -106.057
61.78                   0.172511         -106.19         0.984917         163.874         0.984926         163.872         0.172575        -106.089
61.79                   0.172686        -106.222         0.984886         163.841         0.984897          163.84          0.17275        -106.121
61.8                     0.17286        -106.254         0.984856         163.809         0.984869         163.808         0.172925        -106.154
61.81                   0.173035        -106.287         0.984826         163.777          0.98484         163.775           0.1731        -106.186
61.82                   0.173209        -106.319         0.984796         163.745         0.984811         163.743         0.173274        -106.219
61.83                   0.173384        -106.351         0.984766         163.712         0.984783         163.711         0.173449        -106.251
61.84                   0.173558        -106.384         0.984735          163.68         0.984754         163.678         0.173624        -106.283
61.85                   0.173733        -106.416         0.984705         163.648         0.984726         163.646         0.173798        -106.316
61.86                   0.173907        -106.448         0.984675         163.615         0.984697         163.614         0.173973        -106.348
61.87                   0.174081         -106.48         0.984644         163.583         0.984668         163.581         0.174147        -106.381
61.88                   0.174256        -106.513         0.984614         163.551          0.98464         163.549         0.174321        -106.413
61.89                    0.17443        -106.545         0.984584         163.519         0.984611         163.516         0.174496        -106.445
61.9                    0.174604        -106.577         0.984553         163.486         0.984582         163.484          0.17467        -106.478
61.91                   0.174778         -106.61         0.984523         163.454         0.984554         163.452         0.174844         -106.51
61.92                   0.174952        -106.642         0.984493         163.422         0.984525         163.419         0.175018        -106.543
61.93                   0.175126        -106.674         0.984462         163.389         0.984497         163.387         0.175192        -106.575
61.94                     0.1753        -106.706         0.984432         163.357         0.984468         163.355         0.175367        -106.607
61.95                   0.175473        -106.739         0.984402         163.325         0.984439         163.322          0.17554         -106.64
61.96                   0.175647        -106.771         0.984371         163.293         0.984411          163.29         0.175714        -106.672