! TOUCHSTONE file generated by CST MICROWAVE STUDIO
! Date and time: Tue Feb 27 23:06:26 2024
! Project name: material_angular.cst
! Parameters = {Yi=0; iiii=5; exis2=5; exis=5; X=5; Z=5; Y=2}
! Header version: 2018
! Port assignment regex: !\s*Touchstone port\s*([0-9]+)\s*=\s*(CST MWS port|CST DS port)\s*([0-9]+|Zmin|Zmax)\s*\(\"(.*)\"\)(\s*mode\s*([0-9]+))?.*
! Touchstone port assignment:
! Touchstone port 1 = CST MWS port 1 ("")
! Touchstone port 2 = CST MWS port 2 ("")
# GHz S MA R 376.7
60                      0.140536        -114.806         0.990089         155.247         0.989686         155.251         0.140515          -114.7
60.01                    0.14072        -114.841         0.990062         155.212         0.989659         155.216         0.140697        -114.735
60.02                   0.140904        -114.876         0.990035         155.177         0.989633         155.181          0.14088        -114.769
60.03                   0.141088        -114.911         0.990007         155.142         0.989606         155.146         0.141062        -114.804
60.04                   0.141271        -114.946          0.98998         155.107         0.989579         155.111         0.141245        -114.839
60.05                   0.141455        -114.981         0.989953         155.072         0.989553         155.076         0.141428        -114.873
60.06                   0.141639        -115.016         0.989926         155.037         0.989526         155.041          0.14161        -114.908
60.07                   0.141822        -115.051         0.989899         155.002           0.9895         155.006         0.141792        -114.943
60.08                   0.142006        -115.086         0.989871         154.966         0.989473         154.971         0.141975        -114.977
60.09                   0.142189        -115.121         0.989844         154.931         0.989447         154.936         0.142157        -115.012
60.1                    0.142373        -115.156         0.989817         154.896          0.98942         154.901          0.14234        -115.047
60.11                   0.142556        -115.191         0.989789         154.861         0.989393         154.866         0.142522        -115.081
60.12                    0.14274        -115.226         0.989762         154.826         0.989367         154.831         0.142704        -115.116
60.13                   0.142923        -115.261         0.989735         154.791          0.98934         154.796         0.142887        -115.151
60.14                   0.143106        -115.296         0.989707         154.756         0.989314         154.761         0.143069        -115.186
60.15                   0.143289        -115.331          0.98968         154.721         0.989287         154.725         0.143251         -115.22
60.16                   0.143473        -115.366         0.989653         154.686         0.989261          154.69         0.143433        -115.255
60.17                   0.143656        -115.401         0.989625         154.651         0.989234         154.655         0.143616         -115.29
60.18                   0.143839        -115.436         0.989598         154.616         0.989208          154.62         0.143798        -115.324
60.19                   0.144022        -115.471          0.98957         154.581         0.989181         154.585          0.14398        -115.359
60.2                    0.144205        -115.506         0.989543         154.546         0.989154          154.55         0.144162        -115.394
60.21                   0.144388        -115.541         0.989516         154.511         0.989128         154.515         0.144344        -115.428
60.22                   0.144571        -115.576         0.989488         154.475         0.989101          154.48         0.144526        -115.463
60.23                   0.144754        -115.612         0.989461          154.44         0.989075         154.445         0.144708        -115.498
60.24                   0.144937        -115.647         0.989433         154.405         0.989048          154.41          0.14489        -115.533
60.25                    0.14512        -115.682         0.989406          154.37         0.989022         154.375         0.145072        -115.567
60.26                   0.145303        -115.717         0.989378         154.335         0.988995          154.34         0.145254        -115.602
60.27                   0.145486        -115.752          0.98935           154.3         0.988969         154.305         0.145436        -115.637
60.28                   0.145668        -115.787         0.989323         154.265         0.988942          154.27         0.145618        -115.672
60.29                   0.145851        -115.822         0.989295          154.23         0.988915         154.235         0.145799        -115.706
60.3                    0.146034        -115.857         0.989268         154.195         0.988889           154.2         0.145981        -115.741
60.31                   0.146216        -115.892          0.98924          154.16         0.988862         154.165         0.146163        -115.776
60.32                   0.146399        -115.927         0.989212         154.125         0.988836          154.13         0.146345         -115.81
60.33                   0.146581        -115.962         0.989185          154.09         0.988809         154.095         0.146526        -115.845
60.34                   0.146764        -115.997         0.989157         154.055         0.988783          154.06         0.146708         -115.88
60.35                   0.146946        -116.032         0.989129          154.02         0.988756         154.025          0.14689        -115.915
60.36                   0.147129        -116.067         0.989102         153.985          0.98873          153.99         0.147071        -115.949
60.37                   0.147311        -116.102         0.989074          153.95         0.988703         153.955         0.147253        -115.984
60.38                   0.147493        -116.137         0.989046         153.915         0.988677          153.92         0.147434        -116.019
60.39                   0.147676        -116.172         0.989018          153.88          0.98865         153.885         0.147616        -116.054
60.4                    0.147858        -116.207          0.98899         153.845         0.988623          153.85         0.147797        -116.088
60.41                    0.14804        -116.242         0.988963          153.81         0.988597         153.815         0.147979        -116.123
60.42                   0.148222        -116.277         0.988935         153.775          0.98857          153.78          0.14816        -116.158
60.43                   0.148404        -116.313         0.988907          153.74         0.988544         153.745         0.148341        -116.193
60.44                   0.148586        -116.348         0.988879         153.705         0.988517          153.71         0.148523        -116.227
60.45                   0.148768        -116.383         0.988851          153.67         0.988491         153.675         0.148704        -116.262
60.46                    0.14895        -116.418         0.988823         153.635         0.988464          153.64         0.148885        -116.297
60.47                   0.149132        -116.453         0.988795           153.6         0.988438         153.605         0.149066        -116.332
60.48                   0.149314        -116.488         0.988767         153.565         0.988411          153.57         0.149248        -116.366
60.49                   0.149496        -116.523         0.988739         153.529         0.988385         153.535         0.149429        -116.401
60.5                    0.149678        -116.558         0.988712         153.494         0.988358           153.5          0.14961        -116.436
60.51                    0.14986        -116.593         0.988684         153.459         0.988332         153.465         0.149791        -116.471
60.52                   0.150041        -116.628         0.988656         153.424         0.988305          153.43         0.149972        -116.506
60.53                   0.150223        -116.663         0.988627         153.389         0.988279         153.395         0.150153         -116.54
60.54                   0.150405        -116.698         0.988599         153.354         0.988252          153.36         0.150334        -116.575
60.55                   0.150586        -116.733         0.988571         153.319         0.988226         153.325         0.150515         -116.61
60.56                   0.150768        -116.768         0.988543         153.284         0.988199          153.29         0.150696        -116.645
60.57                   0.150949        -116.803         0.988515         153.249         0.988173         153.255         0.150877        -116.679
60.58                   0.151131        -116.838         0.988487         153.214         0.988146          153.22         0.151057        -116.714
60.59                   0.151312        -116.873         0.988459         153.179          0.98812         153.185         0.151238        -116.749
60.6                    0.151493        -116.908         0.988431         153.144         0.988093          153.15         0.151419        -116.784
60.61                   0.151675        -116.943         0.988403         153.109         0.988067         153.115           0.1516        -116.819
60.62                   0.151856        -116.978         0.988374         153.074          0.98804          153.08          0.15178        -116.853
60.63                   0.152037        -117.013         0.988346          153.04         0.988014         153.045         0.151961        -116.888
60.64                   0.152218        -117.048         0.988318         153.005         0.987987          153.01         0.152142        -116.923
60.65                   0.152399        -117.083          0.98829          152.97         0.987961         152.975         0.152322        -116.958
60.66                    0.15258        -117.119         0.988262         152.935         0.987934          152.94         0.152503        -116.992
60.67                   0.152761        -117.154         0.988233           152.9         0.987908         152.905         0.152683        -117.027
60.68                   0.152942        -117.189         0.988205         152.865         0.987881          152.87         0.152864        -117.062
60.69                   0.153123        -117.224         0.988177          152.83         0.987855         152.835         0.153044        -117.097
60.7                    0.153304        -117.259         0.988148         152.795         0.987828           152.8         0.153224        -117.132
60.71                   0.153485        -117.294          0.98812          152.76         0.987802         152.765         0.153405        -117.166
60.72                   0.153666        -117.329         0.988092         152.725         0.987775          152.73         0.153585        -117.201
60.73                   0.153847        -117.364         0.988063          152.69         0.987749         152.695         0.153765        -117.236
60.74                   0.154027        -117.399         0.988035         152.655         0.987722          152.66         0.153945        -117.271
60.75                   0.154208        -117.434         0.988006          152.62         0.987696         152.625         0.154126        -117.306
60.76                   0.154389        -117.469         0.987978         152.585         0.987669          152.59         0.154306         -117.34
60.77                   0.154569        -117.504          0.98795          152.55         0.987643         152.555         0.154486        -117.375
60.78                    0.15475        -117.539         0.987921         152.515         0.987616          152.52         0.154666         -117.41
60.79                    0.15493        -117.574         0.987893          152.48          0.98759         152.485         0.154846        -117.445
60.8                     0.15511        -117.609         0.987864         152.445         0.987564          152.45         0.155026         -117.48
60.81                   0.155291        -117.644         0.987836          152.41         0.987537         152.415         0.155206        -117.514
60.82                   0.155471        -117.679         0.987807         152.375         0.987511          152.38         0.155386        -117.549
60.83                   0.155651        -117.714         0.987779          152.34         0.987484         152.345         0.155566        -117.584
60.84                   0.155832        -117.749          0.98775         152.305         0.987458          152.31         0.155745        -117.619
60.85                   0.156012        -117.784         0.987721          152.27         0.987431         152.275         0.155925        -117.654
60.86                   0.156192        -117.819         0.987693         152.235         0.987405          152.24         0.156105        -117.688
60.87                   0.156372        -117.854         0.987664           152.2         0.987378         152.205         0.156285        -117.723
60.88                   0.156552        -117.889         0.987635         152.165         0.987352          152.17         0.156464        -117.758
60.89                   0.156732        -117.924         0.987607         152.131         0.987325         152.135         0.156644        -117.793
60.9                    0.156912        -117.959         0.987578         152.096         0.987299           152.1         0.156823        -117.828
60.91                   0.157092        -117.994         0.987549         152.061         0.987273         152.066         0.157003        -117.862
60.92                   0.157271        -118.029         0.987521         152.026         0.987246         152.031         0.157182        -117.897
60.93                   0.157451        -118.064         0.987492         151.991          0.98722         151.996         0.157362        -117.932
60.94                   0.157631        -118.099         0.987463         151.956         0.987193         151.961         0.157541        -117.967
60.95                   0.157811        -118.134         0.987434         151.921         0.987167         151.926         0.157721        -118.002
60.96                    0.15799        -118.169         0.987406         151.886          0.98714         151.891           0.1579        -118.037
60.97                    0.15817        -118.204         0.987377         151.851         0.987114         151.856         0.158079        -118.071
60.98                   0.158349        -118.239         0.987348         151.816         0.987087         151.821         0.158259        -118.106
60.99                   0.158529        -118.274         0.987319         151.781         0.987061         151.786         0.158438        -118.141
61                      0.158708        -118.309          0.98729         151.746         0.987035         151.751         0.158617        -118.176
61.01                   0.158887        -118.344         0.987261         151.711         0.987008         151.716         0.158796        -118.211
61.02                   0.159067        -118.379         0.987232         151.677         0.986982         151.681         0.158975        -118.245
61.03                   0.159246        -118.414         0.987204         151.642         0.986955         151.646         0.159154         -118.28
61.04                   0.159425        -118.449         0.987175         151.607         0.986929         151.611         0.159333        -118.315
61.05                   0.159604        -118.484         0.987146         151.572         0.986902         151.576         0.159512         -118.35
61.06                   0.159783        -118.519         0.987117         151.537         0.986876         151.542         0.159691        -118.385
61.07                   0.159963        -118.554         0.987088         151.502          0.98685         151.507          0.15987         -118.42
61.08                   0.160142        -118.589         0.987059         151.467         0.986823         151.472         0.160048        -118.454
61.09                   0.160321        -118.624          0.98703         151.432         0.986797         151.437         0.160227        -118.489
61.1                    0.160499        -118.659         0.987001         151.397          0.98677         151.402         0.160406        -118.524
61.11                   0.160678        -118.694         0.986972         151.362         0.986744         151.367         0.160585        -118.559
61.12                   0.160857        -118.729         0.986942         151.328         0.986717         151.332         0.160763        -118.594
61.13                   0.161036        -118.764         0.986913         151.293         0.986691         151.297         0.160942        -118.628
61.14                   0.161214        -118.799         0.986884         151.258         0.986665         151.262          0.16112        -118.663
61.15                   0.161393        -118.834         0.986855         151.223         0.986638         151.227         0.161299        -118.698
61.16                   0.161572        -118.869         0.986826         151.188         0.986612         151.192         0.161477        -118.733
61.17                    0.16175        -118.904         0.986797         151.153         0.986585         151.158         0.161656        -118.768
61.18                   0.161929        -118.939         0.986768         151.118         0.986559         151.123         0.161834        -118.803
61.19                   0.162107        -118.974         0.986738         151.083         0.986533         151.088         0.162012        -118.837
61.2                    0.162286        -119.009         0.986709         151.048         0.986506         151.053         0.162191        -118.872
61.21                   0.162464        -119.044          0.98668         151.014          0.98648         151.018         0.162369        -118.907
61.22                   0.162642        -119.079         0.986651         150.979         0.986453         150.983         0.162547        -118.942
61.23                    0.16282        -119.114         0.986621         150.944         0.986427         150.948         0.162725        -118.977
61.24                   0.162999        -119.148         0.986592         150.909           0.9864         150.913         0.162903        -119.012
61.25                   0.163177        -119.183         0.986563         150.874         0.986374         150.878         0.163081        -119.046
61.26                   0.163355        -119.218         0.986533         150.839         0.986348         150.844         0.163259        -119.081
61.27                   0.163533        -119.253         0.986504         150.804         0.986321         150.809         0.163437        -119.116
61.28                   0.163711        -119.288         0.986475          150.77         0.986295         150.774         0.163615        -119.151
61.29                   0.163889        -119.323         0.986445         150.735         0.986268         150.739         0.163793        -119.186
61.3                    0.164066        -119.358         0.986416           150.7         0.986242         150.704         0.163971        -119.221
61.31                   0.164244        -119.393         0.986386         150.665         0.986215         150.669         0.164148        -119.255
61.32                   0.164422        -119.428         0.986357          150.63         0.986189         150.634         0.164326         -119.29
61.33                     0.1646        -119.463         0.986327         150.595         0.986163           150.6         0.164504        -119.325
61.34                   0.164777        -119.498         0.986298          150.56         0.986136         150.565         0.164681         -119.36
61.35                   0.164955        -119.533         0.986268         150.526          0.98611          150.53         0.164859        -119.395
61.36                   0.165132        -119.568         0.986239         150.491         0.986083         150.495         0.165036        -119.429
61.37                    0.16531        -119.603         0.986209         150.456         0.986057          150.46         0.165214        -119.464
61.38                   0.165487        -119.638          0.98618         150.421          0.98603         150.425         0.165391        -119.499
61.39                   0.165665        -119.673          0.98615         150.386         0.986004          150.39         0.165569        -119.534
61.4                    0.165842        -119.707         0.986121         150.351         0.985978         150.356         0.165746        -119.569
61.41                   0.166019        -119.742         0.986091         150.317         0.985951         150.321         0.165923        -119.604
61.42                   0.166196        -119.777         0.986061         150.282         0.985925         150.286           0.1661        -119.638
61.43                   0.166373        -119.812         0.986032         150.247         0.985898         150.251         0.166278        -119.673
61.44                    0.16655        -119.847         0.986002         150.212         0.985872         150.216         0.166455        -119.708
61.45                   0.166728        -119.882         0.985972         150.177         0.985845         150.181         0.166632        -119.743
61.46                   0.166904        -119.917         0.985943         150.143         0.985819         150.147         0.166809        -119.778
61.47                   0.167081        -119.952         0.985913         150.108         0.985792         150.112         0.166986        -119.812
61.48                   0.167258        -119.987         0.985883         150.073         0.985766         150.077         0.167163        -119.847
61.49                   0.167435        -120.022         0.985853         150.038          0.98574         150.042         0.167339        -119.882
61.5                    0.167612        -120.056         0.985823         150.003         0.985713         150.007         0.167516        -119.917
61.51                   0.167788        -120.091         0.985794         149.968         0.985687         149.972         0.167693        -119.952
61.52                   0.167965        -120.126         0.985764         149.934          0.98566         149.938          0.16787        -119.987
61.53                   0.168142        -120.161         0.985734         149.899         0.985634         149.903         0.168046        -120.021
61.54                   0.168318        -120.196         0.985704         149.864         0.985607         149.868         0.168223        -120.056
61.55                   0.168495        -120.231         0.985674         149.829         0.985581         149.833           0.1684        -120.091
61.56                   0.168671        -120.266         0.985644         149.794         0.985554         149.798         0.168576        -120.126
61.57                   0.168847        -120.301         0.985614          149.76         0.985528         149.764         0.168753        -120.161
61.58                   0.169024        -120.335         0.985584         149.725         0.985501         149.729         0.168929        -120.195
61.59                     0.1692         -120.37         0.985555          149.69         0.985475         149.694         0.169105         -120.23
61.6                    0.169376        -120.405         0.985525         149.655         0.985448         149.659         0.169282        -120.265
61.61                   0.169552         -120.44         0.985495         149.621         0.985422         149.624         0.169458          -120.3
61.62                   0.169728        -120.475         0.985465         149.586         0.985395          149.59         0.169634        -120.335
61.63                   0.169904         -120.51         0.985434         149.551         0.985369         149.555          0.16981         -120.37
61.64                    0.17008        -120.545         0.985404         149.516         0.985342          149.52         0.169986        -120.404
61.65                   0.170256         -120.58         0.985374         149.481         0.985316         149.485         0.170162        -120.439
61.66                   0.170432        -120.614         0.985344         149.447         0.985289         149.451         0.170338        -120.474
61.67                   0.170608        -120.649         0.985314         149.412         0.985263         149.416         0.170514        -120.509
61.68                   0.170784        -120.684         0.985284         149.377         0.985236         149.381          0.17069        -120.544
61.69                   0.170959        -120.719         0.985254         149.342         0.985209         149.346         0.170866        -120.578
61.7                    0.171135        -120.754         0.985224         149.308         0.985183         149.312         0.171042        -120.613
61.71                    0.17131        -120.789         0.985194         149.273         0.985156         149.277         0.171218        -120.648
61.72                   0.171486        -120.823         0.985163         149.238          0.98513         149.242         0.171393        -120.683
61.73                   0.171661        -120.858         0.985133         149.203         0.985103         149.207         0.171569        -120.718
61.74                   0.171837        -120.893         0.985103         149.169         0.985076         149.173         0.171744        -120.752
61.75                   0.172012        -120.928         0.985073         149.134          0.98505         149.138          0.17192        -120.787
61.76                   0.172187        -120.963         0.985042         149.099         0.985023         149.103         0.172095        -120.822
61.77                   0.172363        -120.998         0.985012         149.064         0.984997         149.068         0.172271        -120.857
61.78                   0.172538        -121.032         0.984982          149.03          0.98497         149.034         0.172446        -120.892
61.79                   0.172713        -121.067         0.984951         148.995         0.984943         148.999         0.172622        -120.926
61.8                    0.172888        -121.102         0.984921          148.96         0.984917         148.964         0.172797        -120.961
61.81                   0.173063        -121.137         0.984891         148.925          0.98489         148.929         0.172972        -120.996
61.82                   0.173238        -121.172          0.98486         148.891         0.984863         148.895         0.173147        -121.031
61.83                   0.173413        -121.206          0.98483         148.856         0.984837          148.86         0.173322        -121.066
61.84                   0.173587        -121.241         0.984799         148.821          0.98481         148.825         0.173497          -121.1
61.85                   0.173762        -121.276         0.984769         148.786         0.984783         148.791         0.173672        -121.135
61.86                   0.173937        -121.311         0.984738         148.752         0.984757         148.756         0.173847         -121.17
61.87                   0.174111        -121.346         0.984708         148.717          0.98473         148.721         0.174022        -121.205
61.88                   0.174286         -121.38         0.984677         148.682         0.984703         148.686         0.174197         -121.24
61.89                    0.17446        -121.415         0.984647         148.648         0.984676         148.652         0.174372        -121.274
61.9                    0.174635         -121.45         0.984616         148.613          0.98465         148.617         0.174546        -121.309
61.91                   0.174809        -121.485         0.984586         148.578         0.984623         148.582         0.174721        -121.344
61.92                   0.174984        -121.519         0.984555         148.543         0.984596         148.548         0.174895        -121.379
61.93                   0.175158        -121.554         0.984525         148.509         0.984569         148.513          0.17507        -121.414
61.94                   0.175332        -121.589         0.984494         148.474         0.984543         148.478         0.175244        -121.448
61.95                   0.175506        -121.624         0.984463         148.439         0.984516         148.444         0.175419        -121.483
61.96                    0.17568        -121.659         0.984433         148.405         0.984489         148.409         0.175593        -121.518