! TOUCHSTONE file generated by CST MICROWAVE STUDIO
! Date and time: Tue Feb 27 23:06:28 2024
! Project name: material_angular.cst
! Parameters = {Yi=1; iiii=5; exis2=5; exis=5; X=5; Z=5; Y=2}
! Header version: 2018
! Port assignment regex: !\s*Touchstone port\s*([0-9]+)\s*=\s*(CST MWS port|CST DS port)\s*([0-9]+|Zmin|Zmax)\s*\(\"(.*)\"\)(\s*mode\s*([0-9]+))?.*
! Touchstone port assignment:
! Touchstone port 1 = CST MWS port 1 ("")
! Touchstone port 2 = CST MWS port 2 ("")
# GHz S MA R 376.7
60                      0.135652        -127.486         0.990801         155.893         0.990856         155.907         0.135555        -100.864
60.01                   0.135822        -127.523         0.990775         155.858         0.990832         155.872         0.135725        -100.897
60.02                   0.135992        -127.559         0.990749         155.824         0.990808         155.838         0.135895        -100.929
60.03                   0.136162        -127.596         0.990723         155.789         0.990784         155.803         0.136064        -100.961
60.04                   0.136332        -127.633         0.990697         155.755          0.99076         155.769         0.136234        -100.994
60.05                   0.136502        -127.669         0.990671          155.72         0.990736         155.734         0.136404        -101.026
60.06                   0.136672        -127.706         0.990646         155.686         0.990712           155.7         0.136574        -101.058
60.07                   0.136843        -127.743          0.99062         155.651         0.990688         155.665         0.136744        -101.091
60.08                   0.137013        -127.779         0.990594         155.617         0.990664         155.631         0.136914        -101.123
60.09                   0.137183        -127.816         0.990568         155.582          0.99064         155.596         0.137084        -101.155
60.1                    0.137353        -127.852         0.990542         155.548         0.990616         155.562         0.137254        -101.188
60.11                   0.137523        -127.889         0.990516         155.513         0.990592         155.527         0.137424         -101.22
60.12                   0.137694        -127.926          0.99049         155.479         0.990568         155.493         0.137594        -101.252
60.13                   0.137864        -127.962         0.990464         155.444         0.990543         155.458         0.137764        -101.285
60.14                   0.138034        -127.999         0.990437          155.41         0.990519         155.424         0.137934        -101.317
60.15                   0.138204        -128.035         0.990411         155.375         0.990495         155.389         0.138104         -101.35
60.16                   0.138375        -128.072         0.990385         155.341         0.990471         155.355         0.138274        -101.382
60.17                   0.138545        -128.108         0.990359         155.306         0.990446          155.32         0.138444        -101.414
60.18                   0.138715        -128.145         0.990333         155.272         0.990422         155.286         0.138614        -101.447
60.19                   0.138885        -128.181         0.990307         155.237         0.990398         155.251         0.138785        -101.479
60.2                    0.139056        -128.218         0.990281         155.203         0.990373         155.217         0.138955        -101.511
60.21                   0.139226        -128.254         0.990254         155.168         0.990349         155.182         0.139125        -101.544
60.22                   0.139396        -128.291         0.990228         155.134         0.990325         155.148         0.139295        -101.576
60.23                   0.139567        -128.327         0.990202         155.099           0.9903         155.113         0.139465        -101.609
60.24                   0.139737        -128.364         0.990176         155.065         0.990276         155.079         0.139635        -101.641
60.25                   0.139908          -128.4         0.990149          155.03         0.990251         155.044         0.139806        -101.673
60.26                   0.140078        -128.437         0.990123         154.996         0.990227          155.01         0.139976        -101.706
60.27                   0.140248        -128.473         0.990097         154.961         0.990202         154.975         0.140146        -101.738
60.28                   0.140419        -128.509          0.99007         154.927         0.990178         154.941         0.140316        -101.771
60.29                   0.140589        -128.546         0.990044         154.892         0.990153         154.906         0.140486        -101.803
60.3                     0.14076        -128.582         0.990018         154.858         0.990128         154.872         0.140657        -101.835
60.31                    0.14093        -128.619         0.989991         154.823         0.990104         154.837         0.140827        -101.868
60.32                     0.1411        -128.655         0.989965         154.789         0.990079         154.803         0.140997          -101.9
60.33                   0.141271        -128.691         0.989938         154.754         0.990054         154.768         0.141168        -101.933
60.34                   0.141441        -128.728         0.989912          154.72          0.99003         154.734         0.141338        -101.965
60.35                   0.141612        -128.764         0.989885         154.685         0.990005         154.699         0.141508        -101.998
60.36                   0.141782        -128.801         0.989859         154.651          0.98998         154.665         0.141678         -102.03
60.37                   0.141953        -128.837         0.989832         154.616         0.989956          154.63         0.141849        -102.062
60.38                   0.142123        -128.873         0.989806         154.582         0.989931         154.596         0.142019        -102.095
60.39                   0.142294         -128.91         0.989779         154.547         0.989906         154.561          0.14219        -102.127
60.4                    0.142464        -128.946         0.989753         154.513         0.989881         154.527          0.14236         -102.16
60.41                   0.142635        -128.982         0.989726         154.478         0.989856         154.492          0.14253        -102.192
60.42                   0.142805        -129.019         0.989699         154.444         0.989831         154.458         0.142701        -102.225
60.43                   0.142976        -129.055         0.989673         154.409         0.989806         154.424         0.142871        -102.257
60.44                   0.143146        -129.091         0.989646         154.375         0.989781         154.389         0.143041         -102.29
60.45                   0.143317        -129.127         0.989619          154.34         0.989757         154.355         0.143212        -102.322
60.46                   0.143487        -129.164         0.989593         154.306         0.989732          154.32         0.143382        -102.355
60.47                   0.143658          -129.2         0.989566         154.271         0.989707         154.286         0.143553        -102.387
60.48                   0.143828        -129.236         0.989539         154.237         0.989682         154.251         0.143723         -102.42
60.49                   0.143999        -129.272         0.989512         154.202         0.989656         154.217         0.143894        -102.452
60.5                     0.14417        -129.309         0.989486         154.168         0.989631         154.182         0.144064        -102.485
60.51                    0.14434        -129.345         0.989459         154.133         0.989606         154.148         0.144235        -102.517
60.52                   0.144511        -129.381         0.989432         154.099         0.989581         154.113         0.144405         -102.55
60.53                   0.144681        -129.417         0.989405         154.064         0.989556         154.079         0.144576        -102.582
60.54                   0.144852        -129.454         0.989378          154.03         0.989531         154.044         0.144746        -102.615
60.55                   0.145022         -129.49         0.989352         153.995         0.989506          154.01         0.144917        -102.647
60.56                   0.145193        -129.526         0.989325         153.961          0.98948         153.975         0.145087         -102.68
60.57                   0.145364        -129.562         0.989298         153.926         0.989455         153.941         0.145258        -102.712
60.58                   0.145534        -129.598         0.989271         153.892          0.98943         153.906         0.145428        -102.745
60.59                   0.145705        -129.635         0.989244         153.857         0.989405         153.872         0.145599        -102.777
60.6                    0.145876        -129.671         0.989217         153.823         0.989379         153.837         0.145769         -102.81
60.61                   0.146046        -129.707          0.98919         153.788         0.989354         153.803          0.14594        -102.842
60.62                   0.146217        -129.743         0.989163         153.754         0.989329         153.768          0.14611        -102.875
60.63                   0.146387        -129.779         0.989136         153.719         0.989303         153.734         0.146281        -102.907
60.64                   0.146558        -129.815         0.989109         153.685         0.989278         153.699         0.146452         -102.94
60.65                   0.146729        -129.851         0.989082          153.65         0.989252         153.665         0.146622        -102.972
60.66                   0.146899        -129.887         0.989055         153.616         0.989227          153.63         0.146793        -103.005
60.67                    0.14707        -129.924         0.989028         153.581         0.989202         153.596         0.146963        -103.038
60.68                   0.147241         -129.96         0.989001         153.547         0.989176         153.561         0.147134         -103.07
60.69                   0.147411        -129.996         0.988974         153.512         0.989151         153.527         0.147305        -103.103
60.7                    0.147582        -130.032         0.988946         153.478         0.989125         153.492         0.147475        -103.135
60.71                   0.147753        -130.068         0.988919         153.443         0.989099         153.458         0.147646        -103.168
60.72                   0.147923        -130.104         0.988892         153.409         0.989074         153.424         0.147816          -103.2
60.73                   0.148094         -130.14         0.988865         153.374         0.989048         153.389         0.147987        -103.233
60.74                   0.148265        -130.176         0.988838          153.34         0.989023         153.355         0.148158        -103.266
60.75                   0.148435        -130.212          0.98881         153.305         0.988997          153.32         0.148328        -103.298
60.76                   0.148606        -130.248         0.988783         153.271         0.988971         153.286         0.148499        -103.331
60.77                   0.148777        -130.284         0.988756         153.236         0.988946         153.251          0.14867        -103.363
60.78                   0.148947         -130.32         0.988729         153.202          0.98892         153.217          0.14884        -103.396
60.79                   0.149118        -130.356         0.988701         153.167         0.988894         153.182         0.149011        -103.429
60.8                    0.149289        -130.392         0.988674         153.133         0.988868         153.148         0.149182        -103.461
60.81                   0.149459        -130.428         0.988647         153.098         0.988843         153.113         0.149352        -103.494
60.82                    0.14963        -130.464         0.988619         153.064         0.988817         153.079         0.149523        -103.526
60.83                   0.149801          -130.5         0.988592         153.029         0.988791         153.044         0.149694        -103.559
60.84                   0.149971        -130.536         0.988564         152.995         0.988765          153.01         0.149864        -103.592
60.85                   0.150142        -130.572         0.988537          152.96         0.988739         152.975         0.150035        -103.624
60.86                   0.150313        -130.608          0.98851         152.926         0.988713         152.941         0.150206        -103.657
60.87                   0.150483        -130.644         0.988482         152.891         0.988687         152.906         0.150376         -103.69
60.88                   0.150654         -130.68         0.988455         152.857         0.988661         152.872         0.150547        -103.722
60.89                   0.150825        -130.716         0.988427         152.822         0.988635         152.837         0.150718        -103.755
60.9                    0.150996        -130.752           0.9884         152.788         0.988609         152.803         0.150888        -103.787
60.91                   0.151166        -130.788         0.988372         152.754         0.988583         152.768         0.151059         -103.82
60.92                   0.151337        -130.824         0.988345         152.719         0.988557         152.734          0.15123        -103.853
60.93                   0.151508         -130.86         0.988317         152.685         0.988531           152.7         0.151401        -103.885
60.94                   0.151678        -130.896          0.98829          152.65         0.988505         152.665         0.151571        -103.918
60.95                   0.151849        -130.932         0.988262         152.616         0.988479         152.631         0.151742        -103.951
60.96                    0.15202        -130.968         0.988234         152.581         0.988453         152.596         0.151913        -103.983
60.97                    0.15219        -131.004         0.988207         152.547         0.988427         152.562         0.152083        -104.016
60.98                   0.152361        -131.039         0.988179         152.512           0.9884         152.527         0.152254        -104.049
60.99                   0.152532        -131.075         0.988151         152.478         0.988374         152.493         0.152425        -104.082
61                      0.152702        -131.111         0.988124         152.443         0.988348         152.458         0.152596        -104.114
61.01                   0.152873        -131.147         0.988096         152.409         0.988322         152.424         0.152766        -104.147
61.02                   0.153044        -131.183         0.988068         152.374         0.988295         152.389         0.152937         -104.18
61.03                   0.153214        -131.219          0.98804          152.34         0.988269         152.355         0.153108        -104.212
61.04                   0.153385        -131.255         0.988013         152.305         0.988243          152.32         0.153278        -104.245
61.05                   0.153556         -131.29         0.987985         152.271         0.988217         152.286         0.153449        -104.278
61.06                   0.153726        -131.326         0.987957         152.236          0.98819         152.251          0.15362         -104.31
61.07                   0.153897        -131.362         0.987929         152.202         0.988164         152.217         0.153791        -104.343
61.08                   0.154068        -131.398         0.987902         152.168         0.988137         152.183         0.153961        -104.376
61.09                   0.154238        -131.434         0.987874         152.133         0.988111         152.148         0.154132        -104.409
61.1                    0.154409         -131.47         0.987846         152.099         0.988084         152.114         0.154303        -104.441
61.11                    0.15458        -131.505         0.987818         152.064         0.988058         152.079         0.154474        -104.474
61.12                    0.15475        -131.541          0.98779          152.03         0.988031         152.045         0.154644        -104.507
61.13                   0.154921        -131.577         0.987762         151.995         0.988005          152.01         0.154815         -104.54
61.14                   0.155092        -131.613         0.987734         151.961         0.987978         151.976         0.154986        -104.572
61.15                   0.155262        -131.649         0.987706         151.926         0.987952         151.941         0.155156        -104.605
61.16                   0.155433        -131.684         0.987678         151.892         0.987925         151.907         0.155327        -104.638
61.17                   0.155604         -131.72          0.98765         151.857         0.987899         151.872         0.155498        -104.671
61.18                   0.155774        -131.756         0.987622         151.823         0.987872         151.838         0.155669        -104.703
61.19                   0.155945        -131.792         0.987594         151.788         0.987845         151.803         0.155839        -104.736
61.2                    0.156116        -131.827         0.987566         151.754         0.987819         151.769          0.15601        -104.769
61.21                   0.156286        -131.863         0.987538         151.719         0.987792         151.735         0.156181        -104.802
61.22                   0.156457        -131.899          0.98751         151.685         0.987765           151.7         0.156351        -104.834
61.23                   0.156627        -131.935         0.987482         151.651         0.987738         151.666         0.156522        -104.867
61.24                   0.156798         -131.97         0.987454         151.616         0.987712         151.631         0.156693          -104.9
61.25                   0.156969        -132.006         0.987426         151.582         0.987685         151.597         0.156863        -104.933
61.26                   0.157139        -132.042         0.987398         151.547         0.987658         151.562         0.157034        -104.966
61.27                    0.15731        -132.078         0.987369         151.513         0.987631         151.528         0.157205        -104.998
61.28                    0.15748        -132.113         0.987341         151.478         0.987604         151.493         0.157376        -105.031
61.29                   0.157651        -132.149         0.987313         151.444         0.987577         151.459         0.157546        -105.064
61.3                    0.157821        -132.185         0.987285         151.409          0.98755         151.424         0.157717        -105.097
61.31                   0.157992         -132.22         0.987257         151.375         0.987524          151.39         0.157888         -105.13
61.32                   0.158163        -132.256         0.987228         151.341         0.987497         151.356         0.158058        -105.162
61.33                   0.158333        -132.292           0.9872         151.306          0.98747         151.321         0.158229        -105.195
61.34                   0.158504        -132.327         0.987172         151.272         0.987443         151.287           0.1584        -105.228
61.35                   0.158674        -132.363         0.987143         151.237         0.987416         151.252          0.15857        -105.261
61.36                   0.158845        -132.399         0.987115         151.203         0.987389         151.218         0.158741        -105.294
61.37                   0.159015        -132.434         0.987087         151.168         0.987361         151.183         0.158912        -105.327
61.38                   0.159186         -132.47         0.987058         151.134         0.987334         151.149         0.159082        -105.359
61.39                   0.159356        -132.506          0.98703         151.099         0.987307         151.114         0.159253        -105.392
61.4                    0.159527        -132.541         0.987002         151.065          0.98728          151.08         0.159423        -105.425
61.41                   0.159697        -132.577         0.986973         151.031         0.987253         151.046         0.159594        -105.458
61.42                   0.159868        -132.612         0.986945         150.996         0.987226         151.011         0.159765        -105.491
61.43                   0.160038        -132.648         0.986916         150.962         0.987199         150.977         0.159935        -105.524
61.44                   0.160209        -132.684         0.986888         150.927         0.987171         150.942         0.160106        -105.557
61.45                   0.160379        -132.719          0.98686         150.893         0.987144         150.908         0.160276         -105.59
61.46                    0.16055        -132.755         0.986831         150.858         0.987117         150.873         0.160447        -105.622
61.47                    0.16072         -132.79         0.986803         150.824          0.98709         150.839         0.160618        -105.655
61.48                    0.16089        -132.826         0.986774         150.789         0.987062         150.804         0.160788        -105.688
61.49                   0.161061        -132.862         0.986745         150.755         0.987035          150.77         0.160959        -105.721
61.5                    0.161231        -132.897         0.986717         150.721         0.987008         150.736         0.161129        -105.754
61.51                   0.161402        -132.933         0.986688         150.686          0.98698         150.701           0.1613        -105.787
61.52                   0.161572        -132.968          0.98666         150.652         0.986953         150.667         0.161471         -105.82
61.53                   0.161742        -133.004         0.986631         150.617         0.986925         150.632         0.161641        -105.853
61.54                   0.161913        -133.039         0.986603         150.583         0.986898         150.598         0.161812        -105.886
61.55                   0.162083        -133.075         0.986574         150.548          0.98687         150.563         0.161982        -105.918
61.56                   0.162253        -133.111         0.986545         150.514         0.986843         150.529         0.162153        -105.951
61.57                   0.162424        -133.146         0.986517          150.48         0.986815         150.495         0.162323        -105.984
61.58                   0.162594        -133.182         0.986488         150.445         0.986788          150.46         0.162494        -106.017
61.59                   0.162764        -133.217         0.986459         150.411          0.98676         150.426         0.162664         -106.05
61.6                    0.162935        -133.253          0.98643         150.376         0.986733         150.391         0.162835        -106.083
61.61                   0.163105        -133.288         0.986402         150.342         0.986705         150.357         0.163005        -106.116
61.62                   0.163275        -133.324         0.986373         150.307         0.986678         150.322         0.163176        -106.149
61.63                   0.163446        -133.359         0.986344         150.273          0.98665         150.288         0.163346        -106.182
61.64                   0.163616        -133.395         0.986315         150.239         0.986622         150.254         0.163516        -106.215
61.65                   0.163786         -133.43         0.986287         150.204         0.986594         150.219         0.163687        -106.248
61.66                   0.163956        -133.466         0.986258          150.17         0.986567         150.185         0.163857        -106.281
61.67                   0.164127        -133.501         0.986229         150.135         0.986539          150.15         0.164028        -106.314
61.68                   0.164297        -133.537           0.9862         150.101         0.986511         150.116         0.164198        -106.347
61.69                   0.164467        -133.572         0.986171         150.066         0.986484         150.081         0.164369         -106.38
61.7                    0.164637        -133.608         0.986142         150.032         0.986456         150.047         0.164539        -106.413
61.71                   0.164807        -133.643         0.986113         149.998         0.986428         150.013         0.164709        -106.446
61.72                   0.164978        -133.679         0.986084         149.963           0.9864         149.978          0.16488        -106.479
61.73                   0.165148        -133.714         0.986055         149.929         0.986372         149.944          0.16505        -106.512
61.74                   0.165318        -133.749         0.986027         149.894         0.986344         149.909          0.16522        -106.545
61.75                   0.165488        -133.785         0.985998          149.86         0.986316         149.875         0.165391        -106.578
61.76                   0.165658         -133.82         0.985969         149.826         0.986288          149.84         0.165561        -106.611
61.77                   0.165828        -133.856          0.98594         149.791          0.98626         149.806         0.165731        -106.644
61.78                   0.165998        -133.891         0.985911         149.757         0.986232         149.772         0.165902        -106.677
61.79                   0.166168        -133.927         0.985882         149.722         0.986204         149.737         0.166072         -106.71
61.8                    0.166338        -133.962         0.985852         149.688         0.986176         149.703         0.166242        -106.743
61.81                   0.166508        -133.997         0.985823         149.654         0.986148         149.668         0.166413        -106.776
61.82                   0.166678        -134.033         0.985794         149.619          0.98612         149.634         0.166583        -106.809
61.83                   0.166848        -134.068         0.985765         149.585         0.986092           149.6         0.166753        -106.842
61.84                   0.167018        -134.104         0.985736          149.55         0.986064         149.565         0.166923        -106.875
61.85                   0.167188        -134.139         0.985707         149.516         0.986036         149.531         0.167093        -106.908
61.86                   0.167358        -134.174         0.985678         149.482         0.986008         149.496         0.167264        -106.941
61.87                   0.167528         -134.21         0.985649         149.447          0.98598         149.462         0.167434        -106.974
61.88                   0.167698        -134.245         0.985619         149.413         0.985952         149.427         0.167604        -107.007
61.89                   0.167868         -134.28          0.98559         149.378         0.985923         149.393         0.167774         -107.04
61.9                    0.168038        -134.316         0.985561         149.344         0.985895         149.359         0.167944        -107.073
61.91                   0.168208        -134.351         0.985532          149.31         0.985867         149.324         0.168114        -107.106
61.92                   0.168378        -134.387         0.985503         149.275         0.985838          149.29         0.168285        -107.139
61.93                   0.168548        -134.422         0.985473         149.241          0.98581         149.255         0.168455        -107.172
61.94                   0.168718        -134.457         0.985444         149.206         0.985782         149.221         0.168625        -107.205
61.95                   0.168887        -134.493         0.985415         149.172         0.985753         149.187         0.168795        -107.238
61.96                   0.169057        -134.528         0.985385         149.138         0.985725         149.152         0.168965        -107.271