! TOUCHSTONE file generated by CST MICROWAVE STUDIO
! Date and time: Sun Mar  3 12:09:19 2024
! Project name: material_angular.cst
! Parameters = {d=8.7; Yi=5; iiii=5; exis2=5; exis=5; X=5; Z=5; Y=2}
! Header version: 2018
! Port assignment regex: !\s*Touchstone port\s*([0-9]+)\s*=\s*(CST MWS port|CST DS port)\s*([0-9]+|Zmin|Zmax)\s*\(\"(.*)\"\)(\s*mode\s*([0-9]+))?.*
! Touchstone port assignment:
! Touchstone port 1 = CST MWS port 1 ("")
! Touchstone port 2 = CST MWS port 2 ("")
# GHz S MA R 376.7
60                      0.140697        -158.056          0.99015         112.003         0.989824         112.004         0.140696        -157.928
60.01                   0.140881        -158.098         0.990124         111.961         0.989797         111.961          0.14088         -157.97
60.02                   0.141065        -158.141         0.990098         111.919         0.989771         111.919         0.141063        -158.011
60.03                   0.141249        -158.183         0.990072         111.876         0.989744         111.876         0.141246        -158.053
60.04                   0.141433        -158.226         0.990046         111.834         0.989717         111.834         0.141429        -158.095
60.05                   0.141617        -158.268         0.990019         111.791         0.989691         111.792         0.141612        -158.137
60.06                   0.141801        -158.311         0.989993         111.749         0.989664         111.749         0.141795        -158.179
60.07                   0.141985        -158.353         0.989967         111.706         0.989637         111.707         0.141978         -158.22
60.08                   0.142169        -158.396          0.98994         111.664         0.989611         111.664         0.142161        -158.262
60.09                   0.142352        -158.438         0.989914         111.622         0.989584         111.622         0.142344        -158.304
60.1                    0.142536        -158.481         0.989887         111.579         0.989557          111.58         0.142526        -158.346
60.11                    0.14272        -158.523         0.989861         111.537         0.989531         111.537         0.142709        -158.388
60.12                   0.142903        -158.566         0.989834         111.494         0.989504         111.495         0.142892         -158.43
60.13                   0.143087        -158.608         0.989808         111.452         0.989477         111.453         0.143075        -158.471
60.14                    0.14327        -158.651         0.989781          111.41          0.98945          111.41         0.143257        -158.513
60.15                   0.143454        -158.693         0.989755         111.367         0.989424         111.368          0.14344        -158.555
60.16                   0.143637        -158.736         0.989728         111.325         0.989397         111.326         0.143623        -158.597
60.17                    0.14382        -158.778         0.989701         111.283          0.98937         111.283         0.143805        -158.639
60.18                   0.144004        -158.821         0.989674          111.24         0.989343         111.241         0.143988        -158.681
60.19                   0.144187        -158.863         0.989648         111.198         0.989317         111.198         0.144171        -158.723
60.2                     0.14437        -158.906         0.989621         111.155          0.98929         111.156         0.144353        -158.765
60.21                   0.144553        -158.948         0.989594         111.113         0.989263         111.114         0.144536        -158.806
60.22                   0.144736        -158.991         0.989567         111.071         0.989236         111.071         0.144718        -158.848
60.23                   0.144919        -159.033          0.98954         111.028          0.98921         111.029           0.1449         -158.89
60.24                   0.145102        -159.076         0.989513         110.986         0.989183         110.987         0.145083        -158.932
60.25                   0.145285        -159.118         0.989486         110.944         0.989156         110.944         0.145265        -158.974
60.26                   0.145468         -159.16         0.989459         110.901         0.989129         110.902         0.145447        -159.016
60.27                   0.145651        -159.203         0.989432         110.859         0.989103          110.86          0.14563        -159.058
60.28                   0.145834        -159.245         0.989405         110.817         0.989076         110.817         0.145812          -159.1
60.29                   0.146016        -159.288         0.989378         110.774         0.989049         110.775         0.145994        -159.142
60.3                    0.146199         -159.33         0.989351         110.732         0.989022         110.733         0.146176        -159.184
60.31                   0.146382        -159.373         0.989324          110.69         0.988995          110.69         0.146358        -159.226
60.32                   0.146564        -159.415         0.989297         110.647         0.988969         110.648          0.14654        -159.268
60.33                   0.146747        -159.458         0.989269         110.605         0.988942         110.606         0.146723         -159.31
60.34                   0.146929          -159.5         0.989242         110.563         0.988915         110.564         0.146905        -159.352
60.35                   0.147112        -159.542         0.989215          110.52         0.988888         110.521         0.147087        -159.394
60.36                   0.147294        -159.585         0.989187         110.478         0.988861         110.479         0.147268        -159.435
60.37                   0.147476        -159.627          0.98916         110.436         0.988834         110.437          0.14745        -159.477
60.38                   0.147659         -159.67         0.989133         110.393         0.988808         110.394         0.147632        -159.519
60.39                   0.147841        -159.712         0.989105         110.351         0.988781         110.352         0.147814        -159.561
60.4                    0.148023        -159.755         0.989078         110.309         0.988754          110.31         0.147996        -159.603
60.41                   0.148205        -159.797          0.98905         110.267         0.988727         110.267         0.148178        -159.645
60.42                   0.148387        -159.839         0.989023         110.224           0.9887         110.225         0.148359        -159.687
60.43                   0.148569        -159.882         0.988995         110.182         0.988673         110.183         0.148541        -159.729
60.44                   0.148751        -159.924         0.988967          110.14         0.988646         110.141         0.148723        -159.771
60.45                   0.148933        -159.967          0.98894         110.097         0.988619         110.098         0.148904        -159.813
60.46                   0.149115        -160.009         0.988912         110.055         0.988592         110.056         0.149086        -159.855
60.47                   0.149297        -160.051         0.988884         110.013         0.988565         110.014         0.149267        -159.897
60.48                   0.149479        -160.094         0.988857         109.971         0.988539         109.972         0.149449        -159.939
60.49                   0.149661        -160.136         0.988829         109.928         0.988512         109.929          0.14963        -159.981
60.5                    0.149842        -160.179         0.988801         109.886         0.988485         109.887         0.149812        -160.023
60.51                   0.150024        -160.221         0.988773         109.844         0.988458         109.845         0.149993        -160.065
60.52                   0.150205        -160.263         0.988745         109.802         0.988431         109.802         0.150174        -160.107
60.53                   0.150387        -160.306         0.988717         109.759         0.988404          109.76         0.150355        -160.149
60.54                   0.150568        -160.348         0.988689         109.717         0.988377         109.718         0.150537        -160.191
60.55                    0.15075         -160.39         0.988661         109.675          0.98835         109.676         0.150718        -160.234
60.56                   0.150931        -160.433         0.988633         109.632         0.988323         109.633         0.150899        -160.276
60.57                   0.151112        -160.475         0.988605          109.59         0.988296         109.591          0.15108        -160.318
60.58                   0.151294        -160.517         0.988577         109.548         0.988269         109.549         0.151261         -160.36
60.59                   0.151475         -160.56         0.988549         109.506         0.988242         109.507         0.151442        -160.402
60.6                    0.151656        -160.602         0.988521         109.464         0.988215         109.465         0.151623        -160.444
60.61                   0.151837        -160.645         0.988493         109.421         0.988187         109.422         0.151804        -160.486
60.62                   0.152018        -160.687         0.988465         109.379          0.98816          109.38         0.151985        -160.528
60.63                   0.152199        -160.729         0.988437         109.337         0.988133         109.338         0.152166         -160.57
60.64                    0.15238        -160.772         0.988408         109.295         0.988106         109.296         0.152347        -160.612
60.65                   0.152561        -160.814          0.98838         109.252         0.988079         109.253         0.152528        -160.654
60.66                   0.152742        -160.856         0.988352          109.21         0.988052         109.211         0.152708        -160.696
60.67                   0.152923        -160.899         0.988323         109.168         0.988025         109.169         0.152889        -160.738
60.68                   0.153104        -160.941         0.988295         109.126         0.987998         109.127          0.15307         -160.78
60.69                   0.153284        -160.983         0.988267         109.084         0.987971         109.085          0.15325        -160.822
60.7                    0.153465        -161.026         0.988238         109.041         0.987943         109.042         0.153431        -160.864
60.71                   0.153646        -161.068          0.98821         108.999         0.987916             109         0.153611        -160.906
60.72                   0.153826         -161.11         0.988181         108.957         0.987889         108.958         0.153792        -160.949
60.73                   0.154007        -161.153         0.988153         108.915         0.987862         108.916         0.153972        -160.991
60.74                   0.154187        -161.195         0.988124         108.872         0.987835         108.873         0.154153        -161.033
60.75                   0.154367        -161.237         0.988095          108.83         0.987807         108.831         0.154333        -161.075
60.76                   0.154548        -161.279         0.988067         108.788          0.98778         108.789         0.154513        -161.117
60.77                   0.154728        -161.322         0.988038         108.746         0.987753         108.747         0.154693        -161.159
60.78                   0.154908        -161.364          0.98801         108.704         0.987726         108.705         0.154874        -161.201
60.79                   0.155089        -161.406         0.987981         108.662         0.987698         108.663         0.155054        -161.243
60.8                    0.155269        -161.449         0.987952         108.619         0.987671          108.62         0.155234        -161.285
60.81                   0.155449        -161.491         0.987923         108.577         0.987644         108.578         0.155414        -161.327
60.82                   0.155629        -161.533         0.987895         108.535         0.987617         108.536         0.155594        -161.369
60.83                   0.155809        -161.576         0.987866         108.493         0.987589         108.494         0.155774        -161.412
60.84                   0.155989        -161.618         0.987837         108.451         0.987562         108.452         0.155954        -161.454
60.85                   0.156169         -161.66         0.987808         108.409         0.987535          108.41         0.156134        -161.496
60.86                   0.156348        -161.702         0.987779         108.366         0.987507         108.367         0.156314        -161.538
60.87                   0.156528        -161.745          0.98775         108.324          0.98748         108.325         0.156494         -161.58
60.88                   0.156708        -161.787         0.987721         108.282         0.987453         108.283         0.156673        -161.622
60.89                   0.156887        -161.829         0.987692          108.24         0.987425         108.241         0.156853        -161.664
60.9                    0.157067        -161.871         0.987663         108.198         0.987398         108.199         0.157033        -161.706
60.91                   0.157247        -161.914         0.987634         108.156          0.98737         108.157         0.157212        -161.748
60.92                   0.157426        -161.956         0.987605         108.113         0.987343         108.114         0.157392         -161.79
60.93                   0.157606        -161.998         0.987576         108.071         0.987315         108.072         0.157571        -161.833
60.94                   0.157785         -162.04         0.987547         108.029         0.987288          108.03         0.157751        -161.875
60.95                   0.157964        -162.083         0.987518         107.987          0.98726         107.988          0.15793        -161.917
60.96                   0.158144        -162.125         0.987488         107.945         0.987233         107.946          0.15811        -161.959
60.97                   0.158323        -162.167         0.987459         107.903         0.987206         107.904         0.158289        -162.001
60.98                   0.158502        -162.209          0.98743         107.861         0.987178         107.862         0.158468        -162.043
60.99                   0.158681        -162.252         0.987401         107.819          0.98715         107.819         0.158648        -162.085
61                       0.15886        -162.294         0.987371         107.776         0.987123         107.777         0.158827        -162.127
61.01                   0.159039        -162.336         0.987342         107.734         0.987095         107.735         0.159006         -162.17
61.02                   0.159218        -162.378         0.987313         107.692         0.987068         107.693         0.159185        -162.212
61.03                   0.159397         -162.42         0.987283          107.65          0.98704         107.651         0.159364        -162.254
61.04                   0.159576        -162.463         0.987254         107.608         0.987013         107.609         0.159543        -162.296
61.05                   0.159755        -162.505         0.987224         107.566         0.986985         107.567         0.159722        -162.338
61.06                   0.159934        -162.547         0.987195         107.524         0.986957         107.525         0.159901         -162.38
61.07                   0.160112        -162.589         0.987165         107.482          0.98693         107.483          0.16008        -162.422
61.08                   0.160291        -162.631         0.987136          107.44         0.986902          107.44         0.160259        -162.464
61.09                    0.16047        -162.674         0.987106         107.398         0.986874         107.398         0.160437        -162.507
61.1                    0.160648        -162.716         0.987077         107.355         0.986847         107.356         0.160616        -162.549
61.11                   0.160827        -162.758         0.987047         107.313         0.986819         107.314         0.160795        -162.591
61.12                   0.161005          -162.8         0.987017         107.271         0.986791         107.272         0.160973        -162.633
61.13                   0.161183        -162.842         0.986988         107.229         0.986763          107.23         0.161152        -162.675
61.14                   0.161362        -162.885         0.986958         107.187         0.986736         107.188         0.161331        -162.717
61.15                    0.16154        -162.927         0.986928         107.145         0.986708         107.146         0.161509        -162.759
61.16                   0.161718        -162.969         0.986899         107.103          0.98668         107.104         0.161687        -162.802
61.17                   0.161896        -163.011         0.986869         107.061         0.986652         107.062         0.161866        -162.844
61.18                   0.162074        -163.053         0.986839         107.019         0.986625          107.02         0.162044        -162.886
61.19                   0.162252        -163.095         0.986809         106.977         0.986597         106.978         0.162222        -162.928
61.2                     0.16243        -163.138         0.986779         106.935         0.986569         106.935         0.162401         -162.97
61.21                   0.162608         -163.18         0.986749         106.893         0.986541         106.893         0.162579        -163.012
61.22                   0.162786        -163.222         0.986719         106.851         0.986513         106.851         0.162757        -163.054
61.23                   0.162964        -163.264          0.98669         106.809         0.986485         106.809         0.162935        -163.096
61.24                   0.163142        -163.306          0.98666         106.766         0.986457         106.767         0.163113        -163.139
61.25                    0.16332        -163.348          0.98663         106.724         0.986429         106.725         0.163291        -163.181
61.26                   0.163497         -163.39           0.9866         106.682         0.986401         106.683         0.163469        -163.223
61.27                   0.163675        -163.433          0.98657          106.64         0.986373         106.641         0.163647        -163.265
61.28                   0.163853        -163.475         0.986539         106.598         0.986345         106.599         0.163824        -163.307
61.29                    0.16403        -163.517         0.986509         106.556         0.986317         106.557         0.164002        -163.349
61.3                    0.164208        -163.559         0.986479         106.514         0.986289         106.515          0.16418        -163.391
61.31                   0.164385        -163.601         0.986449         106.472         0.986261         106.473         0.164358        -163.434
61.32                   0.164562        -163.643         0.986419          106.43         0.986233         106.431         0.164535        -163.476
61.33                    0.16474        -163.685         0.986389         106.388         0.986205         106.389         0.164713        -163.518
61.34                   0.164917        -163.727         0.986359         106.346         0.986177         106.347          0.16489         -163.56
61.35                   0.165094        -163.769         0.986328         106.304         0.986149         106.305         0.165068        -163.602
61.36                   0.165271        -163.812         0.986298         106.262         0.986121         106.263         0.165245        -163.644
61.37                   0.165448        -163.854         0.986268          106.22         0.986093         106.221         0.165422        -163.686
61.38                   0.165625        -163.896         0.986237         106.178         0.986065         106.179           0.1656        -163.729
61.39                   0.165802        -163.938         0.986207         106.136         0.986037         106.137         0.165777        -163.771
61.4                    0.165979         -163.98         0.986177         106.094         0.986008         106.095         0.165954        -163.813
61.41                   0.166156        -164.022         0.986146         106.052          0.98598         106.053         0.166131        -163.855
61.42                   0.166333        -164.064         0.986116          106.01         0.985952         106.011         0.166308        -163.897
61.43                   0.166509        -164.106         0.986086         105.968         0.985924         105.969         0.166485        -163.939
61.44                   0.166686        -164.148         0.986055         105.926         0.985895         105.927         0.166662        -163.981
61.45                   0.166863         -164.19         0.986025         105.884         0.985867         105.885         0.166839        -164.023
61.46                   0.167039        -164.232         0.985994         105.842         0.985839         105.843         0.167016        -164.066
61.47                   0.167216        -164.274         0.985964           105.8          0.98581         105.801         0.167193        -164.108
61.48                   0.167392        -164.317         0.985933         105.758         0.985782         105.759          0.16737         -164.15
61.49                   0.167569        -164.359         0.985902         105.716         0.985754         105.717         0.167546        -164.192
61.5                    0.167745        -164.401         0.985872         105.674         0.985725         105.675         0.167723        -164.234
61.51                   0.167921        -164.443         0.985841         105.632         0.985697         105.633           0.1679        -164.276
61.52                   0.168098        -164.485         0.985811          105.59         0.985669         105.591         0.168076        -164.318
61.53                   0.168274        -164.527          0.98578         105.548          0.98564         105.549         0.168253        -164.361
61.54                    0.16845        -164.569         0.985749         105.506         0.985612         105.507         0.168429        -164.403
61.55                   0.168626        -164.611         0.985718         105.464         0.985583         105.465         0.168605        -164.445
61.56                   0.168802        -164.653         0.985688         105.422         0.985555         105.423         0.168782        -164.487
61.57                   0.168978        -164.695         0.985657          105.38         0.985526         105.381         0.168958        -164.529
61.58                   0.169154        -164.737         0.985626         105.339         0.985498         105.339         0.169134        -164.571
61.59                    0.16933        -164.779         0.985595         105.297         0.985469         105.297          0.16931        -164.613
61.6                    0.169505        -164.821         0.985564         105.255         0.985441         105.255         0.169487        -164.655
61.61                   0.169681        -164.863         0.985534         105.213         0.985412         105.213         0.169663        -164.697
61.62                   0.169857        -164.905         0.985503         105.171         0.985383         105.171         0.169839         -164.74
61.63                   0.170032        -164.947         0.985472         105.129         0.985355         105.129         0.170014        -164.782
61.64                   0.170208        -164.989         0.985441         105.087         0.985326         105.087          0.17019        -164.824
61.65                   0.170384        -165.031          0.98541         105.045         0.985298         105.045         0.170366        -164.866
61.66                   0.170559        -165.073         0.985379         105.003         0.985269         105.003         0.170542        -164.908
61.67                   0.170734        -165.115         0.985348         104.961          0.98524         104.961         0.170718         -164.95
61.68                    0.17091        -165.157         0.985317         104.919         0.985211          104.92         0.170893        -164.992
61.69                   0.171085        -165.199         0.985286         104.877         0.985183         104.878         0.171069        -165.034
61.7                     0.17126        -165.241         0.985255         104.835         0.985154         104.836         0.171244        -165.077
61.71                   0.171435        -165.283         0.985224         104.793         0.985125         104.794          0.17142        -165.119
61.72                    0.17161        -165.325         0.985193         104.751         0.985096         104.752         0.171595        -165.161
61.73                   0.171785        -165.367         0.985161          104.71         0.985068          104.71         0.171771        -165.203
61.74                    0.17196        -165.409          0.98513         104.668         0.985039         104.668         0.171946        -165.245
61.75                   0.172135        -165.451         0.985099         104.626          0.98501         104.626         0.172121        -165.287
61.76                    0.17231        -165.493         0.985068         104.584         0.984981         104.584         0.172296        -165.329
61.77                   0.172485        -165.535         0.985037         104.542         0.984952         104.542         0.172472        -165.371
61.78                    0.17266        -165.577         0.985005           104.5         0.984923           104.5         0.172647        -165.413
61.79                   0.172835        -165.619         0.984974         104.458         0.984894         104.458         0.172822        -165.455
61.8                    0.173009        -165.661         0.984943         104.416         0.984865         104.417         0.172997        -165.498
61.81                   0.173184        -165.702         0.984912         104.374         0.984836         104.375         0.173172         -165.54
61.82                   0.173358        -165.744          0.98488         104.332         0.984807         104.333         0.173346        -165.582
61.83                   0.173533        -165.786         0.984849         104.291         0.984778         104.291         0.173521        -165.624
61.84                   0.173707        -165.828         0.984818         104.249         0.984749         104.249         0.173696        -165.666
61.85                   0.173882         -165.87         0.984786         104.207          0.98472         104.207         0.173871        -165.708
61.86                   0.174056        -165.912         0.984755         104.165         0.984691         104.165         0.174045         -165.75
61.87                    0.17423        -165.954         0.984723         104.123         0.984662         104.123          0.17422        -165.792
61.88                   0.174404        -165.996         0.984692         104.081         0.984633         104.081         0.174394        -165.834
61.89                   0.174578        -166.038          0.98466         104.039         0.984604          104.04         0.174569        -165.876
61.9                    0.174752         -166.08         0.984629         103.997         0.984574         103.998         0.174743        -165.918
61.91                   0.174926        -166.122         0.984597         103.956         0.984545         103.956         0.174918         -165.96
61.92                     0.1751        -166.164         0.984566         103.914         0.984516         103.914         0.175092        -166.003
61.93                   0.175274        -166.206         0.984534         103.872         0.984487         103.872         0.175266        -166.045
61.94                   0.175448        -166.247         0.984503          103.83         0.984458          103.83          0.17544        -166.087
61.95                   0.175622        -166.289         0.984471         103.788         0.984428         103.788         0.175614        -166.129
61.96                   0.175796        -166.331         0.984439         103.746         0.984399         103.746         0.175788        -166.171