! TOUCHSTONE file generated by CST MICROWAVE STUDIO
! Date and time: Tue Feb 27 21:04:18 2024
! Project name: material_angular.cst
! Parameters = {exis2=1; exis=5; X=5; Z=5; Y=2}
! Header version: 2018
! Port assignment regex: !\s*Touchstone port\s*([0-9]+)\s*=\s*(CST MWS port|CST DS port)\s*([0-9]+|Zmin|Zmax)\s*\(\"(.*)\"\)(\s*mode\s*([0-9]+))?.*
! Touchstone port assignment:
! Touchstone port 1 = CST MWS port 1 ("")
! Touchstone port 2 = CST MWS port 2 ("")
# GHz S MA R 376.7
60                      0.134414        -101.512         0.991021         155.709         0.990884         155.715         0.134364        -127.033
60.01                   0.134595        -101.544         0.990995         155.674          0.99086          155.68         0.134544        -127.069
60.02                   0.134775        -101.576         0.990968         155.639         0.990836         155.645         0.134724        -127.104
60.03                   0.134955        -101.608         0.990942         155.604         0.990812          155.61         0.134905         -127.14
60.04                   0.135136        -101.639         0.990915         155.569         0.990788         155.575         0.135085        -127.176
60.05                   0.135316        -101.671         0.990889         155.534         0.990764          155.54         0.135265        -127.212
60.06                   0.135496        -101.703         0.990862         155.499          0.99074         155.504         0.135446        -127.248
60.07                   0.135677        -101.735         0.990835         155.464         0.990716         155.469         0.135626        -127.284
60.08                   0.135857        -101.767         0.990809         155.429         0.990692         155.434         0.135806         -127.32
60.09                   0.136037        -101.799         0.990782         155.394         0.990668         155.399         0.135987        -127.356
60.1                    0.136218        -101.831         0.990755         155.359         0.990644         155.364         0.136167        -127.392
60.11                   0.136398        -101.863         0.990729         155.323          0.99062         155.329         0.136347        -127.428
60.12                   0.136578        -101.894         0.990702         155.288         0.990596         155.294         0.136528        -127.464
60.13                   0.136759        -101.926         0.990675         155.253         0.990572         155.259         0.136708          -127.5
60.14                   0.136939        -101.958         0.990649         155.218         0.990548         155.224         0.136888        -127.536
60.15                   0.137119         -101.99         0.990622         155.183         0.990523         155.188         0.137069        -127.573
60.16                   0.137299        -102.022         0.990595         155.148         0.990499         155.153         0.137249        -127.609
60.17                    0.13748        -102.054         0.990568         155.113         0.990475         155.118         0.137429        -127.645
60.18                    0.13766        -102.086         0.990542         155.078         0.990451         155.083          0.13761        -127.681
60.19                    0.13784        -102.118         0.990515         155.043         0.990426         155.048          0.13779        -127.717
60.2                     0.13802         -102.15         0.990488         155.008         0.990402         155.013          0.13797        -127.753
60.21                     0.1382        -102.182         0.990461         154.973         0.990378         154.978         0.138151        -127.789
60.22                    0.13838        -102.214         0.990434         154.938         0.990353         154.943         0.138331        -127.826
60.23                    0.13856        -102.246         0.990407         154.903         0.990329         154.908         0.138511        -127.862
60.24                    0.13874        -102.279          0.99038         154.868         0.990305         154.872         0.138691        -127.898
60.25                    0.13892        -102.311         0.990354         154.832          0.99028         154.837         0.138872        -127.934
60.26                     0.1391        -102.343         0.990327         154.797         0.990256         154.802         0.139052         -127.97
60.27                    0.13928        -102.375           0.9903         154.762         0.990231         154.767         0.139232        -128.007
60.28                    0.13946        -102.407         0.990273         154.727         0.990207         154.732         0.139413        -128.043
60.29                    0.13964        -102.439         0.990246         154.692         0.990182         154.697         0.139593        -128.079
60.3                     0.13982        -102.471         0.990219         154.657         0.990158         154.662         0.139773        -128.116
60.31                       0.14        -102.503         0.990192         154.622         0.990133         154.627         0.139954        -128.152
60.32                    0.14018        -102.536         0.990165         154.587         0.990108         154.592         0.140134        -128.188
60.33                    0.14036        -102.568         0.990138         154.552         0.990084         154.557         0.140314        -128.225
60.34                    0.14054          -102.6         0.990111         154.517         0.990059         154.522         0.140494        -128.261
60.35                    0.14072        -102.632         0.990084         154.482         0.990034         154.486         0.140675        -128.297
60.36                     0.1409        -102.664         0.990057         154.447          0.99001         154.451         0.140855        -128.334
60.37                    0.14108        -102.697         0.990029         154.412         0.989985         154.416         0.141035         -128.37
60.38                   0.141259        -102.729         0.990002         154.377          0.98996         154.381         0.141216        -128.407
60.39                   0.141439        -102.761         0.989975         154.342         0.989936         154.346         0.141396        -128.443
60.4                    0.141619        -102.793         0.989948         154.307         0.989911         154.311         0.141576        -128.479
60.41                   0.141799        -102.826         0.989921         154.272         0.989886         154.276         0.141756        -128.516
60.42                   0.141978        -102.858         0.989894         154.236         0.989861         154.241         0.141936        -128.552
60.43                   0.142158         -102.89         0.989867         154.201         0.989836         154.206         0.142117        -128.589
60.44                   0.142338        -102.922         0.989839         154.166         0.989811         154.171         0.142297        -128.625
60.45                   0.142517        -102.955         0.989812         154.131         0.989786         154.136         0.142477        -128.662
60.46                   0.142697        -102.987         0.989785         154.096         0.989762           154.1         0.142657        -128.698
60.47                   0.142876        -103.019         0.989758         154.061         0.989737         154.065         0.142837        -128.735
60.48                   0.143056        -103.052          0.98973         154.026         0.989712          154.03         0.143018        -128.771
60.49                   0.143236        -103.084         0.989703         153.991         0.989687         153.995         0.143198        -128.808
60.5                    0.143415        -103.116         0.989676         153.956         0.989662          153.96         0.143378        -128.845
60.51                   0.143595        -103.149         0.989649         153.921         0.989637         153.925         0.143558        -128.881
60.52                   0.143774        -103.181         0.989621         153.886         0.989612          153.89         0.143738        -128.918
60.53                   0.143953        -103.214         0.989594         153.851         0.989586         153.855         0.143918        -128.954
60.54                   0.144133        -103.246         0.989566         153.816         0.989561          153.82         0.144098        -128.991
60.55                   0.144312        -103.278         0.989539         153.781         0.989536         153.785         0.144278        -129.028
60.56                   0.144492        -103.311         0.989512         153.746         0.989511          153.75         0.144459        -129.064
60.57                   0.144671        -103.343         0.989484         153.711         0.989486         153.715         0.144639        -129.101
60.58                    0.14485        -103.376         0.989457         153.676         0.989461         153.679         0.144819        -129.138
60.59                    0.14503        -103.408         0.989429         153.641         0.989435         153.644         0.144999        -129.175
60.6                    0.145209        -103.441         0.989402         153.606          0.98941         153.609         0.145179        -129.211
60.61                   0.145388        -103.473         0.989375         153.571         0.989385         153.574         0.145359        -129.248
60.62                   0.145567        -103.506         0.989347         153.536          0.98936         153.539         0.145539        -129.285
60.63                   0.145746        -103.538          0.98932         153.501         0.989334         153.504         0.145719        -129.322
60.64                   0.145926        -103.571         0.989292         153.466         0.989309         153.469         0.145899        -129.358
60.65                   0.146105        -103.603         0.989265         153.431         0.989284         153.434         0.146079        -129.395
60.66                   0.146284        -103.636         0.989237         153.396         0.989258         153.399         0.146259        -129.432
60.67                   0.146463        -103.668         0.989209          153.36         0.989233         153.364         0.146439        -129.469
60.68                   0.146642        -103.701         0.989182         153.325         0.989207         153.329         0.146618        -129.506
60.69                   0.146821        -103.733         0.989154          153.29         0.989182         153.294         0.146798        -129.542
60.7                       0.147        -103.766         0.989127         153.255         0.989157         153.259         0.146978        -129.579
60.71                   0.147179        -103.799         0.989099          153.22         0.989131         153.224         0.147158        -129.616
60.72                   0.147358        -103.831         0.989071         153.185         0.989105         153.188         0.147338        -129.653
60.73                   0.147537        -103.864         0.989044          153.15          0.98908         153.153         0.147518         -129.69
60.74                   0.147715        -103.896         0.989016         153.115         0.989054         153.118         0.147697        -129.727
60.75                   0.147894        -103.929         0.988988          153.08         0.989029         153.083         0.147877        -129.764
60.76                   0.148073        -103.962         0.988961         153.045         0.989003         153.048         0.148057        -129.801
60.77                   0.148252        -103.994         0.988933          153.01         0.988978         153.013         0.148237        -129.838
60.78                   0.148431        -104.027         0.988905         152.975         0.988952         152.978         0.148416        -129.875
60.79                   0.148609         -104.06         0.988878          152.94         0.988926         152.943         0.148596        -129.912
60.8                    0.148788        -104.092          0.98885         152.905         0.988901         152.908         0.148776        -129.949
60.81                   0.148967        -104.125         0.988822          152.87         0.988875         152.873         0.148955        -129.986
60.82                   0.149145        -104.158         0.988794         152.835         0.988849         152.838         0.149135        -130.023
60.83                   0.149324         -104.19         0.988766           152.8         0.988823         152.803         0.149315         -130.06
60.84                   0.149502        -104.223         0.988739         152.765         0.988797         152.768         0.149494        -130.097
60.85                   0.149681        -104.256         0.988711          152.73         0.988772         152.733         0.149674        -130.134
60.86                   0.149859        -104.289         0.988683         152.695         0.988746         152.698         0.149853        -130.171
60.87                   0.150038        -104.321         0.988655          152.66          0.98872         152.663         0.150033        -130.208
60.88                   0.150216        -104.354         0.988627         152.625         0.988694         152.628         0.150212        -130.245
60.89                   0.150394        -104.387         0.988599          152.59         0.988668         152.593         0.150392        -130.282
60.9                    0.150573         -104.42         0.988571         152.555         0.988642         152.557         0.150571        -130.319
60.91                   0.150751        -104.452         0.988543          152.52         0.988616         152.522         0.150751        -130.357
60.92                   0.150929        -104.485         0.988515         152.485          0.98859         152.487          0.15093        -130.394
60.93                   0.151108        -104.518         0.988488          152.45         0.988564         152.452         0.151109        -130.431
60.94                   0.151286        -104.551          0.98846         152.415         0.988538         152.417         0.151289        -130.468
60.95                   0.151464        -104.584         0.988432          152.38         0.988512         152.382         0.151468        -130.505
60.96                   0.151642        -104.617         0.988404         152.345         0.988486         152.347         0.151647        -130.543
60.97                    0.15182        -104.649         0.988376          152.31          0.98846         152.312         0.151827         -130.58
60.98                   0.151998        -104.682         0.988348         152.275         0.988434         152.277         0.152006        -130.617
60.99                   0.152176        -104.715          0.98832          152.24         0.988408         152.242         0.152185        -130.654
61                      0.152354        -104.748         0.988291         152.205         0.988382         152.207         0.152364        -130.692
61.01                   0.152532        -104.781         0.988263          152.17         0.988356         152.172         0.152543        -130.729
61.02                    0.15271        -104.814         0.988235         152.135         0.988329         152.137         0.152722        -130.766
61.03                   0.152888        -104.847         0.988207           152.1         0.988303         152.102         0.152902        -130.803
61.04                   0.153066        -104.879         0.988179         152.065         0.988277         152.067         0.153081        -130.841
61.05                   0.153244        -104.912         0.988151          152.03         0.988251         152.032          0.15326        -130.878
61.06                   0.153421        -104.945         0.988123         151.995         0.988224         151.997         0.153439        -130.915
61.07                   0.153599        -104.978         0.988095          151.96         0.988198         151.962         0.153618        -130.953
61.08                   0.153777        -105.011         0.988067         151.925         0.988172         151.927         0.153796         -130.99
61.09                   0.153954        -105.044         0.988038         151.891         0.988145         151.892         0.153975        -131.028
61.1                    0.154132        -105.077          0.98801         151.856         0.988119         151.857         0.154154        -131.065
61.11                   0.154309         -105.11         0.987982         151.821         0.988093         151.822         0.154333        -131.102
61.12                   0.154487        -105.143         0.987954         151.786         0.988066         151.787         0.154512         -131.14
61.13                   0.154664        -105.176         0.987925         151.751          0.98804         151.752         0.154691        -131.177
61.14                   0.154842        -105.209         0.987897         151.716         0.988013         151.717         0.154869        -131.215
61.15                   0.155019        -105.242         0.987869         151.681         0.987987         151.682         0.155048        -131.252
61.16                   0.155197        -105.275         0.987841         151.646          0.98796         151.647         0.155227         -131.29
61.17                   0.155374        -105.308         0.987812         151.611         0.987934         151.612         0.155405        -131.327
61.18                   0.155551        -105.341         0.987784         151.576         0.987907         151.577         0.155584        -131.365
61.19                   0.155728        -105.374         0.987756         151.541         0.987881         151.542         0.155762        -131.402
61.2                    0.155906        -105.407         0.987727         151.506         0.987854         151.507         0.155941         -131.44
61.21                   0.156083         -105.44         0.987699         151.471         0.987827         151.472         0.156119        -131.477
61.22                    0.15626        -105.473         0.987671         151.436         0.987801         151.437         0.156298        -131.515
61.23                   0.156437        -105.506         0.987642         151.401         0.987774         151.402         0.156476        -131.552
61.24                   0.156614        -105.539         0.987614         151.366         0.987747         151.367         0.156654         -131.59
61.25                   0.156791        -105.572         0.987585         151.331         0.987721         151.331         0.156833        -131.628
61.26                   0.156968        -105.605         0.987557         151.296         0.987694         151.296         0.157011        -131.665
61.27                   0.157145        -105.639         0.987529         151.261         0.987667         151.261         0.157189        -131.703
61.28                   0.157322        -105.672           0.9875         151.226          0.98764         151.226         0.157367        -131.741
61.29                   0.157498        -105.705         0.987472         151.191         0.987614         151.191         0.157546        -131.778
61.3                    0.157675        -105.738         0.987443         151.156         0.987587         151.156         0.157724        -131.816
61.31                   0.157852        -105.771         0.987415         151.122          0.98756         151.121         0.157902        -131.854
61.32                   0.158028        -105.804         0.987386         151.087         0.987533         151.086          0.15808        -131.891
61.33                   0.158205        -105.837         0.987358         151.052         0.987506         151.051         0.158258        -131.929
61.34                   0.158382        -105.871         0.987329         151.017         0.987479         151.016         0.158436        -131.967
61.35                   0.158558        -105.904           0.9873         150.982         0.987452         150.981         0.158614        -132.004
61.36                   0.158735        -105.937         0.987272         150.947         0.987425         150.946         0.158791        -132.042
61.37                   0.158911         -105.97         0.987243         150.912         0.987399         150.912         0.158969         -132.08
61.38                   0.159087        -106.003         0.987215         150.877         0.987372         150.877         0.159147        -132.118
61.39                   0.159264        -106.036         0.987186         150.842         0.987345         150.842         0.159325        -132.155
61.4                     0.15944         -106.07         0.987157         150.807         0.987317         150.807         0.159502        -132.193
61.41                   0.159616        -106.103         0.987129         150.772          0.98729         150.772          0.15968        -132.231
61.42                   0.159792        -106.136           0.9871         150.737         0.987263         150.737         0.159858        -132.269
61.43                   0.159969        -106.169         0.987071         150.702         0.987236         150.702         0.160035        -132.307
61.44                   0.160145        -106.202         0.987043         150.667         0.987209         150.667         0.160213        -132.344
61.45                   0.160321        -106.236         0.987014         150.633         0.987182         150.632          0.16039        -132.382
61.46                   0.160497        -106.269         0.986985         150.598         0.987155         150.597         0.160567         -132.42
61.47                   0.160673        -106.302         0.986957         150.563         0.987128         150.562         0.160745        -132.458
61.48                   0.160848        -106.335         0.986928         150.528           0.9871         150.527         0.160922        -132.496
61.49                   0.161024        -106.369         0.986899         150.493         0.987073         150.492         0.161099        -132.534
61.5                      0.1612        -106.402          0.98687         150.458         0.987046         150.457         0.161276        -132.572
61.51                   0.161376        -106.435         0.986842         150.423         0.987019         150.422         0.161453         -132.61
61.52                   0.161552        -106.469         0.986813         150.388         0.986991         150.387          0.16163        -132.648
61.53                   0.161727        -106.502         0.986784         150.353         0.986964         150.352         0.161807        -132.686
61.54                   0.161903        -106.535         0.986755         150.318         0.986937         150.317         0.161984        -132.724
61.55                   0.162078        -106.569         0.986726         150.283         0.986909         150.282         0.162161        -132.762
61.56                   0.162254        -106.602         0.986697         150.249         0.986882         150.247         0.162338          -132.8
61.57                   0.162429        -106.635         0.986669         150.214         0.986855         150.212         0.162515        -132.838
61.58                   0.162605        -106.669          0.98664         150.179         0.986827         150.177         0.162692        -132.876
61.59                    0.16278        -106.702         0.986611         150.144           0.9868         150.142         0.162868        -132.914
61.6                    0.162955        -106.735         0.986582         150.109         0.986772         150.107         0.163045        -132.952
61.61                    0.16313        -106.769         0.986553         150.074         0.986745         150.072         0.163221         -132.99
61.62                   0.163306        -106.802         0.986524         150.039         0.986717         150.037         0.163398        -133.028
61.63                   0.163481        -106.835         0.986495         150.004          0.98669         150.002         0.163574        -133.066
61.64                   0.163656        -106.869         0.986466         149.969         0.986662         149.967         0.163751        -133.104
61.65                   0.163831        -106.902         0.986437         149.935         0.986635         149.932         0.163927        -133.142
61.66                   0.164006        -106.935         0.986408           149.9         0.986607         149.897         0.164103         -133.18
61.67                   0.164181        -106.969         0.986379         149.865         0.986579         149.862          0.16428        -133.218
61.68                   0.164355        -107.002          0.98635          149.83         0.986552         149.827         0.164456        -133.256
61.69                    0.16453        -107.036         0.986321         149.795         0.986524         149.793         0.164632        -133.295
61.7                    0.164705        -107.069         0.986292          149.76         0.986496         149.758         0.164808        -133.333
61.71                    0.16488        -107.103         0.986263         149.725         0.986469         149.723         0.164984        -133.371
61.72                   0.165054        -107.136         0.986234          149.69         0.986441         149.688          0.16516        -133.409
61.73                   0.165229        -107.169         0.986205         149.656         0.986413         149.653         0.165335        -133.447
61.74                   0.165403        -107.203         0.986176         149.621         0.986385         149.618         0.165511        -133.485
61.75                   0.165578        -107.236         0.986147         149.586         0.986358         149.583         0.165687        -133.524
61.76                   0.165752         -107.27         0.986118         149.551          0.98633         149.548         0.165862        -133.562
61.77                   0.165926        -107.303         0.986088         149.516         0.986302         149.513         0.166038          -133.6
61.78                   0.166101        -107.337         0.986059         149.481         0.986274         149.478         0.166214        -133.638
61.79                   0.166275         -107.37          0.98603         149.446         0.986246         149.443         0.166389        -133.677
61.8                    0.166449        -107.404         0.986001         149.412         0.986218         149.408         0.166564        -133.715
61.81                   0.166623        -107.437         0.985972         149.377          0.98619         149.373          0.16674        -133.753
61.82                   0.166797        -107.471         0.985943         149.342         0.986162         149.338         0.166915        -133.791
61.83                   0.166971        -107.504         0.985913         149.307         0.986134         149.303          0.16709         -133.83
61.84                   0.167145        -107.538         0.985884         149.272         0.986106         149.268         0.167265        -133.868
61.85                   0.167319        -107.571         0.985855         149.237         0.986078         149.234          0.16744        -133.906
61.86                   0.167492        -107.605         0.985826         149.202          0.98605         149.199         0.167615        -133.945
61.87                   0.167666        -107.638         0.985796         149.168         0.986022         149.164          0.16779        -133.983
61.88                    0.16784        -107.672         0.985767         149.133         0.985994         149.129         0.167964        -134.021
61.89                   0.168013        -107.705         0.985738         149.098         0.985966         149.094         0.168139         -134.06
61.9                    0.168187        -107.739         0.985708         149.063         0.985938         149.059         0.168314        -134.098
61.91                    0.16836        -107.772         0.985679         149.028          0.98591         149.024         0.168488        -134.137
61.92                   0.168534        -107.806          0.98565         148.993         0.985882         148.989         0.168663        -134.175
61.93                   0.168707        -107.839          0.98562         148.959         0.985854         148.954         0.168837        -134.213
61.94                    0.16888        -107.873         0.985591         148.924         0.985825         148.919         0.169012        -134.252
61.95                   0.169054        -107.907         0.985562         148.889         0.985797         148.884         0.169186         -134.29
61.96                   0.169227         -107.94         0.985532         148.854         0.985769          148.85          0.16936        -134.329
61.97                     0.1694        -107.974         0.985503         148.819         0.985741         148.815         0.169534        -134.367