! TOUCHSTONE file generated by CST MICROWAVE STUDIO
! Date and time: Fri Mar  8 11:09:33 2024
! Project name: material_angular.cst
! Parameters = {d=9.25; Yi=5; iiii=5; exis2=5; exis=5; X=5; Z=5; Y=2}
! Header version: 2018
! Port assignment regex: !\s*Touchstone port\s*([0-9]+)\s*=\s*(CST MWS port|CST DS port)\s*([0-9]+|Zmin|Zmax)\s*\(\"(.*)\"\)(\s*mode\s*([0-9]+))?.*
! Touchstone port assignment:
! Touchstone port 1 = CST MWS port 1 ("")
! Touchstone port 2 = CST MWS port 2 ("")
# GHz S MA R 376.7
60                      0.140505        -78.7754         0.989934        -168.723         0.989929        -168.713         0.140497        -78.6661
60.01                   0.140687        -78.8043         0.989908        -168.752         0.989903        -168.742         0.140679        -78.6951
60.02                   0.140869        -78.8332         0.989883        -168.781         0.989877        -168.771         0.140861        -78.7241
60.03                   0.141051        -78.8621         0.989857         -168.81         0.989851          -168.8         0.141042        -78.7532
60.04                   0.141233         -78.891         0.989832        -168.839         0.989825        -168.829         0.141224        -78.7822
60.05                   0.141415        -78.9199         0.989807        -168.868         0.989798        -168.858         0.141406        -78.8112
60.06                   0.141597        -78.9488         0.989781        -168.897         0.989772        -168.887         0.141587        -78.8403
60.07                   0.141779        -78.9777         0.989756        -168.926         0.989746        -168.916         0.141769        -78.8693
60.08                    0.14196        -79.0066          0.98973        -168.955          0.98972        -168.946          0.14195        -78.8983
60.09                   0.142142        -79.0356         0.989704        -168.984         0.989694        -168.975         0.142132        -78.9274
60.1                    0.142324        -79.0645         0.989679        -169.013         0.989667        -169.004         0.142313        -78.9564
60.11                   0.142506        -79.0934         0.989653        -169.042         0.989641        -169.033         0.142495        -78.9854
60.12                   0.142688        -79.1223         0.989627        -169.071         0.989615        -169.062         0.142676        -79.0144
60.13                   0.142869        -79.1512         0.989602          -169.1         0.989589        -169.091         0.142858        -79.0434
60.14                   0.143051        -79.1801         0.989576        -169.129         0.989562         -169.12         0.143039        -79.0724
60.15                   0.143233         -79.209          0.98955        -169.158         0.989536        -169.149          0.14322        -79.1015
60.16                   0.143414        -79.2378         0.989525        -169.187          0.98951        -169.178         0.143402        -79.1305
60.17                   0.143596        -79.2667         0.989499        -169.216         0.989483        -169.207         0.143583        -79.1595
60.18                   0.143777        -79.2956         0.989473        -169.245         0.989457        -169.236         0.143764        -79.1885
60.19                   0.143959        -79.3245         0.989447        -169.274         0.989431        -169.265         0.143946        -79.2175
60.2                     0.14414        -79.3534         0.989421        -169.303         0.989404        -169.294         0.144127        -79.2465
60.21                   0.144322        -79.3823         0.989395        -169.331         0.989378        -169.323         0.144308        -79.2755
60.22                   0.144503        -79.4112         0.989369         -169.36         0.989351        -169.352         0.144489        -79.3045
60.23                   0.144685        -79.4401         0.989343        -169.389         0.989325        -169.381          0.14467        -79.3335
60.24                   0.144866         -79.469         0.989317        -169.418         0.989298        -169.411         0.144851        -79.3625
60.25                   0.145047        -79.4978         0.989291        -169.447         0.989272         -169.44         0.145032        -79.3915
60.26                   0.145229        -79.5267         0.989265        -169.476         0.989245        -169.469         0.145213        -79.4205
60.27                    0.14541        -79.5556         0.989239        -169.505         0.989219        -169.498         0.145394        -79.4495
60.28                   0.145591        -79.5845         0.989213        -169.534         0.989192        -169.527         0.145575        -79.4785
60.29                   0.145772        -79.6134         0.989187        -169.563         0.989166        -169.556         0.145756        -79.5075
60.3                    0.145954        -79.6422         0.989161        -169.592         0.989139        -169.585         0.145937        -79.5365
60.31                   0.146135        -79.6711         0.989135        -169.621         0.989112        -169.614         0.146118        -79.5654
60.32                   0.146316           -79.7         0.989109         -169.65         0.989086        -169.643         0.146299        -79.5944
60.33                   0.146497        -79.7289         0.989083        -169.679         0.989059        -169.672          0.14648        -79.6234
60.34                   0.146678        -79.7577         0.989056        -169.708         0.989033        -169.701         0.146661        -79.6524
60.35                   0.146859        -79.7866          0.98903        -169.737         0.989006         -169.73         0.146842        -79.6814
60.36                    0.14704        -79.8155         0.989004        -169.766         0.988979        -169.759         0.147022        -79.7104
60.37                   0.147221        -79.8443         0.988977        -169.795         0.988952        -169.788         0.147203        -79.7393
60.38                   0.147402        -79.8732         0.988951        -169.823         0.988926        -169.817         0.147384        -79.7683
60.39                   0.147583        -79.9021         0.988925        -169.852         0.988899        -169.846         0.147565        -79.7973
60.4                    0.147764        -79.9309         0.988898        -169.881         0.988872        -169.875         0.147745        -79.8263
60.41                   0.147944        -79.9598         0.988872         -169.91         0.988845        -169.904         0.147926        -79.8552
60.42                   0.148125        -79.9887         0.988845        -169.939         0.988819        -169.933         0.148106        -79.8842
60.43                   0.148306        -80.0175         0.988819        -169.968         0.988792        -169.962         0.148287        -79.9132
60.44                   0.148487        -80.0464         0.988792        -169.997         0.988765        -169.991         0.148467        -79.9421
60.45                   0.148667        -80.0752         0.988766        -170.026         0.988738         -170.02         0.148648        -79.9711
60.46                   0.148848        -80.1041         0.988739        -170.055         0.988711        -170.049         0.148828        -80.0001
60.47                   0.149029         -80.133         0.988713        -170.084         0.988684        -170.078         0.149009         -80.029
60.48                   0.149209        -80.1618         0.988686        -170.113         0.988658        -170.107         0.149189         -80.058
60.49                    0.14939        -80.1907          0.98866        -170.142         0.988631        -170.136          0.14937        -80.0869
60.5                     0.14957        -80.2195         0.988633        -170.171         0.988604        -170.165          0.14955        -80.1159
60.51                   0.149751        -80.2484         0.988606        -170.199         0.988577        -170.194          0.14973        -80.1448
60.52                   0.149931        -80.2772          0.98858        -170.228          0.98855        -170.223          0.14991        -80.1738
60.53                   0.150112        -80.3061         0.988553        -170.257         0.988523        -170.252         0.150091        -80.2028
60.54                   0.150292        -80.3349         0.988526        -170.286         0.988496        -170.281         0.150271        -80.2317
60.55                   0.150472        -80.3637         0.988499        -170.315         0.988469         -170.31         0.150451        -80.2607
60.56                   0.150653        -80.3926         0.988473        -170.344         0.988442        -170.339         0.150631        -80.2896
60.57                   0.150833        -80.4214         0.988446        -170.373         0.988415        -170.368         0.150811        -80.3185
60.58                   0.151013        -80.4503         0.988419        -170.402         0.988388        -170.397         0.150991        -80.3475
60.59                   0.151193        -80.4791         0.988392        -170.431         0.988361        -170.426         0.151171        -80.3764
60.6                    0.151373        -80.5079         0.988365         -170.46         0.988333        -170.455         0.151351        -80.4054
60.61                   0.151554        -80.5368         0.988338        -170.489         0.988306        -170.484         0.151531        -80.4343
60.62                   0.151734        -80.5656         0.988311        -170.517         0.988279        -170.513         0.151711        -80.4633
60.63                   0.151914        -80.5945         0.988284        -170.546         0.988252        -170.542         0.151891        -80.4922
60.64                   0.152094        -80.6233         0.988257        -170.575         0.988225        -170.571         0.152071        -80.5211
60.65                   0.152274        -80.6521          0.98823        -170.604         0.988198          -170.6         0.152251        -80.5501
60.66                   0.152454        -80.6809         0.988203        -170.633          0.98817        -170.629         0.152431         -80.579
60.67                   0.152634        -80.7098         0.988176        -170.662         0.988143        -170.658         0.152611        -80.6079
60.68                   0.152813        -80.7386         0.988149        -170.691         0.988116        -170.687          0.15279        -80.6369
60.69                   0.152993        -80.7674         0.988122         -170.72         0.988089        -170.716          0.15297        -80.6658
60.7                    0.153173        -80.7962         0.988095        -170.749         0.988061        -170.745          0.15315        -80.6947
60.71                   0.153353        -80.8251         0.988067        -170.777         0.988034        -170.774         0.153329        -80.7236
60.72                   0.153533        -80.8539          0.98804        -170.806         0.988007        -170.803         0.153509        -80.7526
60.73                   0.153712        -80.8827         0.988013        -170.835         0.987979        -170.832         0.153688        -80.7815
60.74                   0.153892        -80.9115         0.987986        -170.864         0.987952        -170.861         0.153868        -80.8104
60.75                   0.154071        -80.9403         0.987958        -170.893         0.987925         -170.89         0.154047        -80.8393
60.76                   0.154251        -80.9692         0.987931        -170.922         0.987897        -170.919         0.154227        -80.8682
60.77                   0.154431         -80.998         0.987904        -170.951          0.98787        -170.947         0.154406        -80.8971
60.78                    0.15461        -81.0268         0.987876         -170.98         0.987843        -170.976         0.154586        -80.9261
60.79                    0.15479        -81.0556         0.987849        -171.008         0.987815        -171.005         0.154765         -80.955
60.8                    0.154969        -81.0844         0.987822        -171.037         0.987788        -171.034         0.154944        -80.9839
60.81                   0.155148        -81.1132         0.987794        -171.066          0.98776        -171.063         0.155124        -81.0128
60.82                   0.155328         -81.142         0.987767        -171.095         0.987733        -171.092         0.155303        -81.0417
60.83                   0.155507        -81.1708         0.987739        -171.124         0.987705        -171.121         0.155482        -81.0706
60.84                   0.155686        -81.1996         0.987712        -171.153         0.987678         -171.15         0.155661        -81.0995
60.85                   0.155865        -81.2284         0.987684        -171.182          0.98765        -171.179          0.15584        -81.1284
60.86                   0.156045        -81.2572         0.987657        -171.211         0.987623        -171.208          0.15602        -81.1573
60.87                   0.156224        -81.2861         0.987629        -171.239         0.987595        -171.237         0.156199        -81.1862
60.88                   0.156403        -81.3148         0.987601        -171.268         0.987567        -171.266         0.156378        -81.2151
60.89                   0.156582        -81.3436         0.987574        -171.297          0.98754        -171.295         0.156557         -81.244
60.9                    0.156761        -81.3724         0.987546        -171.326         0.987512        -171.324         0.156736        -81.2729
60.91                    0.15694        -81.4012         0.987518        -171.355         0.987484        -171.353         0.156914        -81.3018
60.92                   0.157119          -81.43         0.987491        -171.384         0.987457        -171.381         0.157093        -81.3307
60.93                   0.157298        -81.4588         0.987463        -171.413         0.987429         -171.41         0.157272        -81.3596
60.94                   0.157477        -81.4876         0.987435        -171.441         0.987401        -171.439         0.157451        -81.3885
60.95                   0.157655        -81.5164         0.987407         -171.47         0.987374        -171.468          0.15763        -81.4174
60.96                   0.157834        -81.5452          0.98738        -171.499         0.987346        -171.497         0.157808        -81.4462
60.97                   0.158013         -81.574         0.987352        -171.528         0.987318        -171.526         0.157987        -81.4751
60.98                   0.158192        -81.6028         0.987324        -171.557          0.98729        -171.555         0.158166         -81.504
60.99                    0.15837        -81.6316         0.987296        -171.586         0.987263        -171.584         0.158344        -81.5329
61                      0.158549        -81.6603         0.987268        -171.615         0.987235        -171.613         0.158523        -81.5618
61.01                   0.158727        -81.6891          0.98724        -171.643         0.987207        -171.642         0.158702        -81.5907
61.02                   0.158906        -81.7179         0.987212        -171.672         0.987179         -171.67          0.15888        -81.6195
61.03                   0.159084        -81.7467         0.987184        -171.701         0.987151        -171.699         0.159058        -81.6484
61.04                   0.159263        -81.7755         0.987156         -171.73         0.987123        -171.728         0.159237        -81.6773
61.05                   0.159441        -81.8042         0.987128        -171.759         0.987096        -171.757         0.159415        -81.7062
61.06                    0.15962         -81.833           0.9871        -171.788         0.987068        -171.786         0.159594         -81.735
61.07                   0.159798        -81.8618         0.987072        -171.816          0.98704        -171.815         0.159772        -81.7639
61.08                   0.159976        -81.8906         0.987044        -171.845         0.987012        -171.844          0.15995        -81.7928
61.09                   0.160154        -81.9193         0.987016        -171.874         0.986984        -171.873         0.160128        -81.8216
61.1                    0.160333        -81.9481         0.986988        -171.903         0.986956        -171.902         0.160307        -81.8505
61.11                   0.160511        -81.9769         0.986959        -171.932         0.986928         -171.93         0.160485        -81.8794
61.12                   0.160689        -82.0056         0.986931        -171.961           0.9869        -171.959         0.160663        -81.9082
61.13                   0.160867        -82.0344         0.986903        -171.989         0.986872        -171.988         0.160841        -81.9371
61.14                   0.161045        -82.0632         0.986875        -172.018         0.986844        -172.017         0.161019        -81.9659
61.15                   0.161223        -82.0919         0.986846        -172.047         0.986816        -172.046         0.161197        -81.9948
61.16                   0.161401        -82.1207         0.986818        -172.076         0.986787        -172.075         0.161375        -82.0237
61.17                   0.161579        -82.1494          0.98679        -172.105         0.986759        -172.104         0.161553        -82.0525
61.18                   0.161757        -82.1782         0.986761        -172.134         0.986731        -172.132          0.16173        -82.0814
61.19                   0.161935        -82.2069         0.986733        -172.162         0.986703        -172.161         0.161908        -82.1102
61.2                    0.162112        -82.2357         0.986705        -172.191         0.986675         -172.19         0.162086        -82.1391
61.21                    0.16229        -82.2645         0.986676         -172.22         0.986647        -172.219         0.162264        -82.1679
61.22                   0.162468        -82.2932         0.986648        -172.249         0.986618        -172.248         0.162441        -82.1968
61.23                   0.162645         -82.322         0.986619        -172.278          0.98659        -172.277         0.162619        -82.2256
61.24                   0.162823        -82.3507         0.986591        -172.306         0.986562        -172.306         0.162797        -82.2545
61.25                      0.163        -82.3794         0.986562        -172.335         0.986534        -172.334         0.162974        -82.2833
61.26                   0.163178        -82.4082         0.986534        -172.364         0.986506        -172.363         0.163152        -82.3121
61.27                   0.163355        -82.4369         0.986505        -172.393         0.986477        -172.392         0.163329         -82.341
61.28                   0.163533        -82.4657         0.986477        -172.422         0.986449        -172.421         0.163507        -82.3698
61.29                    0.16371        -82.4944         0.986448         -172.45         0.986421         -172.45         0.163684        -82.3987
61.3                    0.163887        -82.5232         0.986419        -172.479         0.986392        -172.479         0.163861        -82.4275
61.31                   0.164065        -82.5519         0.986391        -172.508         0.986364        -172.507         0.164039        -82.4563
61.32                   0.164242        -82.5806         0.986362        -172.537         0.986335        -172.536         0.164216        -82.4851
61.33                   0.164419        -82.6094         0.986333        -172.566         0.986307        -172.565         0.164393         -82.514
61.34                   0.164596        -82.6381         0.986305        -172.594         0.986279        -172.594          0.16457        -82.5428
61.35                   0.164773        -82.6668         0.986276        -172.623          0.98625        -172.623         0.164748        -82.5716
61.36                    0.16495        -82.6956         0.986247        -172.652         0.986222        -172.652         0.164925        -82.6005
61.37                   0.165127        -82.7243         0.986218        -172.681         0.986193         -172.68         0.165102        -82.6293
61.38                   0.165304         -82.753         0.986189         -172.71         0.986165        -172.709         0.165279        -82.6581
61.39                   0.165481        -82.7817          0.98616        -172.738         0.986136        -172.738         0.165456        -82.6869
61.4                    0.165658        -82.8105         0.986132        -172.767         0.986108        -172.767         0.165633        -82.7157
61.41                   0.165835        -82.8392         0.986103        -172.796         0.986079        -172.796         0.165809        -82.7446
61.42                   0.166012        -82.8679         0.986074        -172.825         0.986051        -172.824         0.165986        -82.7734
61.43                   0.166188        -82.8966         0.986045        -172.853         0.986022        -172.853         0.166163        -82.8022
61.44                   0.166365        -82.9254         0.986016        -172.882         0.985993        -172.882          0.16634         -82.831
61.45                   0.166542        -82.9541         0.985987        -172.911         0.985965        -172.911         0.166516        -82.8598
61.46                   0.166718        -82.9828         0.985958         -172.94         0.985936         -172.94         0.166693        -82.8886
61.47                   0.166895        -83.0115         0.985929        -172.969         0.985907        -172.968          0.16687        -82.9174
61.48                   0.167071        -83.0402           0.9859        -172.997         0.985879        -172.997         0.167046        -82.9462
61.49                   0.167248        -83.0689         0.985871        -173.026          0.98585        -173.026         0.167223        -82.9751
61.5                    0.167424        -83.0976         0.985841        -173.055         0.985821        -173.055         0.167399        -83.0039
61.51                   0.167601        -83.1263         0.985812        -173.084         0.985793        -173.084         0.167576        -83.0327
61.52                   0.167777         -83.155         0.985783        -173.112         0.985764        -173.112         0.167752        -83.0615
61.53                   0.167953        -83.1837         0.985754        -173.141         0.985735        -173.141         0.167928        -83.0903
61.54                   0.168129        -83.2125         0.985725         -173.17         0.985706         -173.17         0.168105        -83.1191
61.55                   0.168305        -83.2412         0.985695        -173.199         0.985678        -173.199         0.168281        -83.1478
61.56                   0.168482        -83.2699         0.985666        -173.227         0.985649        -173.227         0.168457        -83.1766
61.57                   0.168658        -83.2986         0.985637        -173.256          0.98562        -173.256         0.168633        -83.2054
61.58                   0.168834        -83.3272         0.985608        -173.285         0.985591        -173.285         0.168809        -83.2342
61.59                    0.16901        -83.3559         0.985578        -173.314         0.985562        -173.314         0.168985         -83.263
61.6                    0.169186        -83.3846         0.985549        -173.342         0.985533        -173.342         0.169161        -83.2918
61.61                   0.169361        -83.4133          0.98552        -173.371         0.985504        -173.371         0.169337        -83.3206
61.62                   0.169537         -83.442          0.98549          -173.4         0.985475          -173.4         0.169513        -83.3494
61.63                   0.169713        -83.4707         0.985461        -173.429         0.985446        -173.429         0.169689        -83.3782
61.64                   0.169889        -83.4994         0.985431        -173.457         0.985417        -173.457         0.169865        -83.4069
61.65                   0.170064        -83.5281         0.985402        -173.486         0.985388        -173.486         0.170041        -83.4357
61.66                    0.17024        -83.5568         0.985372        -173.515         0.985359        -173.515         0.170216        -83.4645
61.67                   0.170416        -83.5854         0.985343        -173.544          0.98533        -173.544         0.170392        -83.4933
61.68                   0.170591        -83.6141         0.985313        -173.572         0.985301        -173.572         0.170568         -83.522
61.69                   0.170767        -83.6428         0.985284        -173.601         0.985272        -173.601         0.170743        -83.5508
61.7                    0.170942        -83.6715         0.985254         -173.63         0.985243         -173.63         0.170919        -83.5796
61.71                   0.171117        -83.7002         0.985224        -173.659         0.985214        -173.659         0.171094        -83.6084
61.72                   0.171293        -83.7288         0.985195        -173.687         0.985185        -173.687          0.17127        -83.6371
61.73                   0.171468        -83.7575         0.985165        -173.716         0.985156        -173.716         0.171445        -83.6659
61.74                   0.171643        -83.7862         0.985136        -173.745         0.985127        -173.745          0.17162        -83.6947
61.75                   0.171818        -83.8148         0.985106        -173.773         0.985097        -173.774         0.171796        -83.7234
61.76                   0.171993        -83.8435         0.985076        -173.802         0.985068        -173.802         0.171971        -83.7522
61.77                   0.172168        -83.8722         0.985046        -173.831         0.985039        -173.831         0.172146        -83.7809
61.78                   0.172343        -83.9008         0.985017         -173.86          0.98501         -173.86         0.172321        -83.8097
61.79                   0.172518        -83.9295         0.984987        -173.888          0.98498        -173.888         0.172496        -83.8385
61.8                    0.172693        -83.9582         0.984957        -173.917         0.984951        -173.917         0.172671        -83.8672
61.81                   0.172868        -83.9868         0.984927        -173.946         0.984922        -173.946         0.172846         -83.896
61.82                   0.173043        -84.0155         0.984897        -173.974         0.984892        -173.975         0.173021        -83.9247
61.83                   0.173218        -84.0441         0.984867        -174.003         0.984863        -174.003         0.173196        -83.9535
61.84                   0.173392        -84.0728         0.984837        -174.032         0.984834        -174.032         0.173371        -83.9822
61.85                   0.173567        -84.1014         0.984808        -174.061         0.984804        -174.061         0.173546         -84.011
61.86                   0.173742        -84.1301         0.984778        -174.089         0.984775        -174.089         0.173721        -84.0397
61.87                   0.173916        -84.1587         0.984748        -174.118         0.984746        -174.118         0.173895        -84.0685
61.88                   0.174091        -84.1874         0.984718        -174.147         0.984716        -174.147          0.17407        -84.0972
61.89                   0.174265         -84.216         0.984688        -174.175         0.984687        -174.175         0.174244        -84.1259
61.9                     0.17444        -84.2447         0.984657        -174.204         0.984657        -174.204         0.174419        -84.1547
61.91                   0.174614        -84.2733         0.984627        -174.233         0.984628        -174.233         0.174594        -84.1834
61.92                   0.174788        -84.3019         0.984597        -174.261         0.984598        -174.262         0.174768        -84.2122
61.93                   0.174962        -84.3306         0.984567         -174.29         0.984569         -174.29         0.174942        -84.2409
61.94                   0.175137        -84.3592         0.984537        -174.319         0.984539        -174.319         0.175117        -84.2696
61.95                   0.175311        -84.3879         0.984507        -174.348         0.984509        -174.348         0.175291        -84.2983
61.96                   0.175485        -84.4165         0.984477        -174.376          0.98448        -174.376         0.175465        -84.3271