! TOUCHSTONE file generated by CST MICROWAVE STUDIO
! Date and time: Mon Feb 26 23:43:56 2024
! Project name: material_desal.cst
! Header version: 2018
! Port assignment regex: !\s*Touchstone port\s*([0-9]+)\s*=\s*(CST MWS port|CST DS port)\s*([0-9]+|Zmin|Zmax)\s*\(\"(.*)\"\)(\s*mode\s*([0-9]+))?.*
! Touchstone port assignment:
! Touchstone port 1 = CST MWS port 1 ("")
! Touchstone port 2 = CST MWS port 2 ("")
# GHz S MA R 376.7
60                      0.142081        -114.759         0.989856         155.135         0.989782         155.139         0.142124        -114.977
60.01                   0.142259        -114.794         0.989831           155.1         0.989758         155.104         0.142301        -115.011
60.02                   0.142437        -114.829         0.989805         155.065         0.989734         155.069         0.142479        -115.045
60.03                   0.142615        -114.864          0.98978          155.03          0.98971         155.034         0.142656        -115.079
60.04                   0.142793        -114.899         0.989754         154.995         0.989686             155         0.142834        -115.112
60.05                   0.142972        -114.933         0.989729          154.96         0.989662         154.965         0.143011        -115.146
60.06                    0.14315        -114.968         0.989703         154.925         0.989637          154.93         0.143189         -115.18
60.07                   0.143328        -115.003         0.989677          154.89         0.989613         154.895         0.143366        -115.213
60.08                   0.143507        -115.038         0.989651         154.855         0.989589          154.86         0.143544        -115.247
60.09                   0.143685        -115.073         0.989626         154.821         0.989565         154.825         0.143722        -115.281
60.1                    0.143863        -115.108           0.9896         154.786          0.98954         154.791         0.143899        -115.315
60.11                   0.144042        -115.143         0.989574         154.751         0.989516         154.756         0.144077        -115.349
60.12                    0.14422        -115.177         0.989548         154.716         0.989491         154.721         0.144254        -115.382
60.13                   0.144398        -115.212         0.989522         154.681         0.989467         154.686         0.144432        -115.416
60.14                   0.144577        -115.247         0.989496         154.646         0.989442         154.651          0.14461         -115.45
60.15                   0.144755        -115.282          0.98947         154.611         0.989418         154.616         0.144787        -115.484
60.16                   0.144933        -115.317         0.989444         154.576         0.989393         154.582         0.144965        -115.518
60.17                   0.145112        -115.352         0.989418         154.541         0.989369         154.547         0.145143        -115.551
60.18                    0.14529        -115.387         0.989392         154.506         0.989344         154.512          0.14532        -115.585
60.19                   0.145468        -115.422         0.989365         154.471         0.989319         154.477         0.145498        -115.619
60.2                    0.145647        -115.457         0.989339         154.436         0.989294         154.442         0.145676        -115.653
60.21                   0.145825        -115.492         0.989313         154.401          0.98927         154.407         0.145854        -115.687
60.22                   0.146004        -115.526         0.989287         154.366         0.989245         154.373         0.146031        -115.721
60.23                   0.146182        -115.561          0.98926         154.331          0.98922         154.338         0.146209        -115.755
60.24                    0.14636        -115.596         0.989234         154.296         0.989195         154.303         0.146387        -115.789
60.25                   0.146539        -115.631         0.989207         154.261          0.98917         154.268         0.146565        -115.822
60.26                   0.146717        -115.666         0.989181         154.227         0.989145         154.233         0.146743        -115.856
60.27                   0.146896        -115.701         0.989154         154.192          0.98912         154.198          0.14692         -115.89
60.28                   0.147074        -115.736         0.989128         154.157         0.989095         154.164         0.147098        -115.924
60.29                   0.147253        -115.771         0.989101         154.122          0.98907         154.129         0.147276        -115.958
60.3                    0.147431        -115.806         0.989075         154.087         0.989045         154.094         0.147454        -115.992
60.31                    0.14761        -115.841         0.989048         154.052         0.989019         154.059         0.147632        -116.026
60.32                   0.147788        -115.876         0.989021         154.017         0.988994         154.024          0.14781         -116.06
60.33                   0.147966        -115.911         0.988995         153.982         0.988969         153.989         0.147988        -116.094
60.34                   0.148145        -115.946         0.988968         153.947         0.988943         153.954         0.148166        -116.128
60.35                   0.148323        -115.981         0.988941         153.912         0.988918         153.919         0.148343        -116.162
60.36                   0.148502        -116.016         0.988914         153.877         0.988893         153.885         0.148521        -116.196
60.37                    0.14868        -116.051         0.988887         153.842         0.988867          153.85         0.148699         -116.23
60.38                   0.148859        -116.086          0.98886         153.807         0.988842         153.815         0.148877        -116.264
60.39                   0.149037        -116.121         0.988833         153.772         0.988816          153.78         0.149055        -116.298
60.4                    0.149216        -116.156         0.988806         153.737          0.98879         153.745         0.149233        -116.332
60.41                   0.149394        -116.191         0.988779         153.703         0.988765          153.71         0.149411        -116.366
60.42                   0.149573        -116.226         0.988752         153.668         0.988739         153.675         0.149589          -116.4
60.43                   0.149751        -116.261         0.988725         153.633         0.988713         153.641         0.149767        -116.434
60.44                    0.14993        -116.296         0.988698         153.598         0.988688         153.606         0.149945        -116.468
60.45                   0.150108        -116.331         0.988671         153.563         0.988662         153.571         0.150123        -116.502
60.46                   0.150287        -116.366         0.988644         153.528         0.988636         153.536         0.150301        -116.536
60.47                   0.150466        -116.401         0.988616         153.493          0.98861         153.501         0.150479         -116.57
60.48                   0.150644        -116.436         0.988589         153.458         0.988584         153.466         0.150657        -116.604
60.49                   0.150823        -116.471         0.988562         153.423         0.988558         153.431         0.150835        -116.638
60.5                    0.151001        -116.506         0.988534         153.388         0.988532         153.396         0.151013        -116.673
60.51                    0.15118        -116.541         0.988507         153.353         0.988506         153.362         0.151191        -116.707
60.52                   0.151358        -116.576         0.988479         153.318          0.98848         153.327         0.151369        -116.741
60.53                   0.151537        -116.611         0.988452         153.283         0.988454         153.292         0.151547        -116.775
60.54                   0.151715        -116.647         0.988424         153.248         0.988428         153.257         0.151725        -116.809
60.55                   0.151894        -116.682         0.988397         153.213         0.988401         153.222         0.151904        -116.843
60.56                   0.152072        -116.717         0.988369         153.178         0.988375         153.187         0.152082        -116.877
60.57                   0.152251        -116.752         0.988341         153.144         0.988349         153.152          0.15226        -116.911
60.58                    0.15243        -116.787         0.988314         153.109         0.988322         153.117         0.152438        -116.946
60.59                   0.152608        -116.822         0.988286         153.074         0.988296         153.082         0.152616         -116.98
60.6                    0.152787        -116.857         0.988258         153.039          0.98827         153.048         0.152794        -117.014
60.61                   0.152965        -116.892          0.98823         153.004         0.988243         153.013         0.152972        -117.048
60.62                   0.153144        -116.927         0.988203         152.969         0.988217         152.978          0.15315        -117.082
60.63                   0.153322        -116.962         0.988175         152.934          0.98819         152.943         0.153328        -117.117
60.64                   0.153501        -116.998         0.988147         152.899         0.988163         152.908         0.153507        -117.151
60.65                   0.153679        -117.033         0.988119         152.864         0.988137         152.873         0.153685        -117.185
60.66                   0.153858        -117.068         0.988091         152.829          0.98811         152.838         0.153863        -117.219
60.67                   0.154037        -117.103         0.988063         152.794         0.988083         152.803         0.154041        -117.253
60.68                   0.154215        -117.138         0.988035         152.759         0.988057         152.768         0.154219        -117.288
60.69                   0.154394        -117.173         0.988007         152.724          0.98803         152.733         0.154397        -117.322
60.7                    0.154572        -117.208         0.987979         152.689         0.988003         152.699         0.154576        -117.356
60.71                   0.154751        -117.244          0.98795         152.655         0.987976         152.664         0.154754         -117.39
60.72                   0.154929        -117.279         0.987922          152.62         0.987949         152.629         0.154932        -117.425
60.73                   0.155108        -117.314         0.987894         152.585         0.987922         152.594          0.15511        -117.459
60.74                   0.155287        -117.349         0.987866          152.55         0.987895         152.559         0.155288        -117.493
60.75                   0.155465        -117.384         0.987837         152.515         0.987868         152.524         0.155467        -117.527
60.76                   0.155644        -117.419         0.987809          152.48         0.987841         152.489         0.155645        -117.562
60.77                   0.155822        -117.455         0.987781         152.445         0.987814         152.454         0.155823        -117.596
60.78                   0.156001         -117.49         0.987752          152.41         0.987786         152.419         0.156001         -117.63
60.79                   0.156179        -117.525         0.987724         152.375         0.987759         152.384         0.156179        -117.665
60.8                    0.156358         -117.56         0.987695          152.34         0.987732         152.349         0.156358        -117.699
60.81                   0.156536        -117.595         0.987667         152.305         0.987704         152.315         0.156536        -117.733
60.82                   0.156715        -117.631         0.987638          152.27         0.987677          152.28         0.156714        -117.768
60.83                   0.156894        -117.666          0.98761         152.235          0.98765         152.245         0.156892        -117.802
60.84                   0.157072        -117.701         0.987581         152.201         0.987622          152.21          0.15707        -117.836
60.85                   0.157251        -117.736         0.987552         152.166         0.987595         152.175         0.157249        -117.871
60.86                   0.157429        -117.772         0.987524         152.131         0.987567          152.14         0.157427        -117.905
60.87                   0.157608        -117.807         0.987495         152.096         0.987539         152.105         0.157605        -117.939
60.88                   0.157786        -117.842         0.987466         152.061         0.987512          152.07         0.157783        -117.974
60.89                   0.157965        -117.877         0.987437         152.026         0.987484         152.035         0.157962        -118.008
60.9                    0.158143        -117.912         0.987408         151.991         0.987456             152          0.15814        -118.043
60.91                   0.158322        -117.948          0.98738         151.956         0.987429         151.965         0.158318        -118.077
60.92                     0.1585        -117.983         0.987351         151.921         0.987401          151.93         0.158496        -118.111
60.93                   0.158679        -118.018         0.987322         151.886         0.987373         151.895         0.158675        -118.146
60.94                   0.158857        -118.053         0.987293         151.851         0.987345         151.861         0.158853         -118.18
60.95                   0.159036        -118.089         0.987264         151.816         0.987317         151.826         0.159031        -118.215
60.96                   0.159214        -118.124         0.987235         151.782         0.987289         151.791         0.159209        -118.249
60.97                   0.159393        -118.159         0.987206         151.747         0.987261         151.756         0.159388        -118.284
60.98                   0.159571        -118.195         0.987176         151.712         0.987233         151.721         0.159566        -118.318
60.99                    0.15975         -118.23         0.987147         151.677         0.987205         151.686         0.159744        -118.352
61                      0.159928        -118.265         0.987118         151.642         0.987177         151.651         0.159922        -118.387
61.01                   0.160107          -118.3         0.987089         151.607         0.987148         151.616         0.160101        -118.421
61.02                   0.160285        -118.336          0.98706         151.572          0.98712         151.581         0.160279        -118.456
61.03                   0.160464        -118.371          0.98703         151.537         0.987092         151.546         0.160457         -118.49
61.04                   0.160642        -118.406         0.987001         151.502         0.987064         151.511         0.160636        -118.525
61.05                   0.160821        -118.442         0.986971         151.467         0.987035         151.476         0.160814        -118.559
61.06                   0.160999        -118.477         0.986942         151.432         0.987007         151.441         0.160992        -118.594
61.07                   0.161178        -118.512         0.986913         151.398         0.986978         151.406          0.16117        -118.628
61.08                   0.161356        -118.548         0.986883         151.363          0.98695         151.372         0.161349        -118.663
61.09                   0.161535        -118.583         0.986854         151.328         0.986921         151.337         0.161527        -118.697
61.1                    0.161713        -118.618         0.986824         151.293         0.986893         151.302         0.161705        -118.732
61.11                   0.161892        -118.654         0.986795         151.258         0.986864         151.267         0.161883        -118.766
61.12                    0.16207        -118.689         0.986765         151.223         0.986835         151.232         0.162062        -118.801
61.13                   0.162248        -118.724         0.986735         151.188         0.986807         151.197          0.16224        -118.835
61.14                   0.162427         -118.76         0.986706         151.153         0.986778         151.162         0.162418         -118.87
61.15                   0.162605        -118.795         0.986676         151.118         0.986749         151.127         0.162596        -118.904
61.16                   0.162784         -118.83         0.986646         151.083          0.98672         151.092         0.162775        -118.939
61.17                   0.162962        -118.866         0.986616         151.049         0.986691         151.057         0.162953        -118.974
61.18                    0.16314        -118.901         0.986586         151.014         0.986662         151.022         0.163131        -119.008
61.19                   0.163319        -118.936         0.986557         150.979         0.986633         150.987         0.163309        -119.043
61.2                    0.163497        -118.972         0.986527         150.944         0.986604         150.952         0.163488        -119.077
61.21                   0.163676        -119.007         0.986497         150.909         0.986575         150.917         0.163666        -119.112
61.22                   0.163854        -119.042         0.986467         150.874         0.986546         150.882         0.163844        -119.146
61.23                   0.164032        -119.078         0.986437         150.839         0.986517         150.847         0.164022        -119.181
61.24                   0.164211        -119.113         0.986407         150.804         0.986488         150.813         0.164201        -119.216
61.25                   0.164389        -119.149         0.986377         150.769         0.986459         150.778         0.164379         -119.25
61.26                   0.164567        -119.184         0.986347         150.734         0.986429         150.743         0.164557        -119.285
61.27                   0.164746        -119.219         0.986317           150.7           0.9864         150.708         0.164735        -119.319
61.28                   0.164924        -119.255         0.986286         150.665         0.986371         150.673         0.164913        -119.354
61.29                   0.165102         -119.29         0.986256          150.63         0.986341         150.638         0.165092        -119.389
61.3                    0.165281        -119.326         0.986226         150.595         0.986312         150.603          0.16527        -119.423
61.31                   0.165459        -119.361         0.986196          150.56         0.986282         150.568         0.165448        -119.458
61.32                   0.165637        -119.396         0.986165         150.525         0.986253         150.533         0.165626        -119.493
61.33                   0.165815        -119.432         0.986135          150.49         0.986223         150.498         0.165804        -119.527
61.34                   0.165994        -119.467         0.986105         150.455         0.986193         150.463         0.165983        -119.562
61.35                   0.166172        -119.503         0.986074          150.42         0.986164         150.428         0.166161        -119.597
61.36                    0.16635        -119.538         0.986044         150.386         0.986134         150.393         0.166339        -119.631
61.37                   0.166528        -119.573         0.986014         150.351         0.986104         150.358         0.166517        -119.666
61.38                   0.166707        -119.609         0.985983         150.316         0.986074         150.323         0.166695        -119.701
61.39                   0.166885        -119.644         0.985953         150.281         0.986045         150.288         0.166874        -119.735
61.4                    0.167063         -119.68         0.985922         150.246         0.986015         150.254         0.167052         -119.77
61.41                   0.167241        -119.715         0.985891         150.211         0.985985         150.219          0.16723        -119.805
61.42                    0.16742        -119.751         0.985861         150.176         0.985955         150.184         0.167408        -119.839
61.43                   0.167598        -119.786          0.98583         150.141         0.985925         150.149         0.167586        -119.874
61.44                   0.167776        -119.822         0.985799         150.107         0.985895         150.114         0.167764        -119.909
61.45                   0.167954        -119.857         0.985769         150.072         0.985865         150.079         0.167942        -119.944
61.46                   0.168132        -119.892         0.985738         150.037         0.985834         150.044         0.168121        -119.978
61.47                    0.16831        -119.928         0.985707         150.002         0.985804         150.009         0.168299        -120.013
61.48                   0.168488        -119.963         0.985676         149.967         0.985774         149.974         0.168477        -120.048
61.49                   0.168667        -119.999         0.985646         149.932         0.985744         149.939         0.168655        -120.082
61.5                    0.168845        -120.034         0.985615         149.897         0.985713         149.904         0.168833        -120.117
61.51                   0.169023         -120.07         0.985584         149.862         0.985683         149.869         0.169011        -120.152
61.52                   0.169201        -120.105         0.985553         149.828         0.985653         149.834         0.169189        -120.187
61.53                   0.169379        -120.141         0.985522         149.793         0.985622         149.799         0.169367        -120.221
61.54                   0.169557        -120.176         0.985491         149.758         0.985592         149.764         0.169545        -120.256
61.55                   0.169735        -120.212          0.98546         149.723         0.985561         149.729         0.169723        -120.291
61.56                   0.169913        -120.247         0.985429         149.688         0.985531         149.694         0.169902        -120.326
61.57                   0.170091        -120.283         0.985398         149.653           0.9855          149.66          0.17008         -120.36
61.58                   0.170269        -120.318         0.985367         149.618         0.985469         149.625         0.170258        -120.395
61.59                   0.170447        -120.354         0.985335         149.584         0.985439          149.59         0.170436         -120.43
61.6                    0.170625        -120.389         0.985304         149.549         0.985408         149.555         0.170614        -120.465
61.61                   0.170803        -120.425         0.985273         149.514         0.985377          149.52         0.170792          -120.5
61.62                   0.170981         -120.46         0.985242         149.479         0.985346         149.485          0.17097        -120.534
61.63                   0.171159        -120.496          0.98521         149.444         0.985316          149.45         0.171148        -120.569
61.64                   0.171337        -120.531         0.985179         149.409         0.985285         149.415         0.171326        -120.604
61.65                   0.171515        -120.567         0.985148         149.374         0.985254          149.38         0.171504        -120.639
61.66                   0.171693        -120.602         0.985116         149.339         0.985223         149.345         0.171682        -120.674
61.67                   0.171871        -120.638         0.985085         149.305         0.985192          149.31          0.17186        -120.708
61.68                   0.172049        -120.673         0.985054          149.27         0.985161         149.275         0.172038        -120.743
61.69                   0.172226        -120.709         0.985022         149.235          0.98513          149.24         0.172216        -120.778
61.7                    0.172404        -120.744         0.984991           149.2         0.985098         149.205         0.172393        -120.813
61.71                   0.172582         -120.78         0.984959         149.165         0.985067          149.17         0.172571        -120.848
61.72                    0.17276        -120.815         0.984928          149.13         0.985036         149.135         0.172749        -120.883
61.73                   0.172938        -120.851         0.984896         149.096         0.985005         149.101         0.172927        -120.917
61.74                   0.173116        -120.886         0.984864         149.061         0.984973         149.066         0.173105        -120.952
61.75                   0.173293        -120.922         0.984833         149.026         0.984942         149.031         0.173283        -120.987
61.76                   0.173471        -120.958         0.984801         148.991         0.984911         148.996         0.173461        -121.022
61.77                   0.173649        -120.993         0.984769         148.956         0.984879         148.961         0.173639        -121.057
61.78                   0.173827        -121.029         0.984738         148.921         0.984848         148.926         0.173817        -121.092
61.79                   0.174004        -121.064         0.984706         148.886         0.984816         148.891         0.173994        -121.127
61.8                    0.174182          -121.1         0.984674         148.852         0.984785         148.856         0.174172        -121.161
61.81                    0.17436        -121.135         0.984642         148.817         0.984753         148.821          0.17435        -121.196
61.82                   0.174538        -121.171          0.98461         148.782         0.984721         148.786         0.174528        -121.231
61.83                   0.174715        -121.206         0.984578         148.747          0.98469         148.751         0.174706        -121.266
61.84                   0.174893        -121.242         0.984547         148.712         0.984658         148.716         0.174884        -121.301
61.85                   0.175071        -121.277         0.984515         148.677         0.984626         148.681         0.175061        -121.336
61.86                   0.175248        -121.313         0.984483         148.643         0.984594         148.646         0.175239        -121.371
61.87                   0.175426        -121.349         0.984451         148.608         0.984562         148.611         0.175417        -121.406
61.88                   0.175603        -121.384         0.984419         148.573          0.98453         148.577         0.175595         -121.44
61.89                   0.175781         -121.42         0.984387         148.538         0.984499         148.542         0.175772        -121.475
61.9                    0.175959        -121.455         0.984354         148.503         0.984467         148.507          0.17595         -121.51
61.91                   0.176136        -121.491         0.984322         148.468         0.984435         148.472         0.176128        -121.545
61.92                   0.176314        -121.526          0.98429         148.434         0.984402         148.437         0.176305         -121.58
61.93                   0.176491        -121.562         0.984258         148.399          0.98437         148.402         0.176483        -121.615
61.94                   0.176669        -121.598         0.984226         148.364         0.984338         148.367         0.176661         -121.65
61.95                   0.176846        -121.633         0.984194         148.329         0.984306         148.332         0.176838        -121.685
61.96                   0.177024        -121.669         0.984161         148.294         0.984274         148.297         0.177016         -121.72
61.97                   0.177201        -121.704         0.984129          148.26         0.984242         148.262         0.177194        -121.755