! TOUCHSTONE file generated by CST MICROWAVE STUDIO
! Date and time: Tue Feb 27 21:04:29 2024
! Project name: material_angular.cst
! Parameters = {exis2=5; exis=5; X=5; Z=5; Y=2}
! Header version: 2018
! Port assignment regex: !\s*Touchstone port\s*([0-9]+)\s*=\s*(CST MWS port|CST DS port)\s*([0-9]+|Zmin|Zmax)\s*\(\"(.*)\"\)(\s*mode\s*([0-9]+))?.*
! Touchstone port assignment:
! Touchstone port 1 = CST MWS port 1 ("")
! Touchstone port 2 = CST MWS port 2 ("")
# GHz S MA R 376.7
60                     0.0956956        -52.1935         0.995486         157.203         0.995322         157.251        0.0956954        -173.283
60.01                  0.0958328        -52.1906         0.995507         157.167         0.995329         157.215        0.0958761        -173.365
60.02                  0.0959701        -52.1878         0.995527         157.131         0.995337         157.179        0.0960565        -173.446
60.03                  0.0961074        -52.1851         0.995546         157.096         0.995344         157.143        0.0962365        -173.526
60.04                  0.0962447        -52.1826         0.995565          157.06          0.99535         157.107        0.0964162        -173.607
60.05                  0.0963821        -52.1802         0.995582         157.024         0.995357          157.07        0.0965954        -173.687
60.06                  0.0965194        -52.1779           0.9956         156.989         0.995363         157.034        0.0967743        -173.767
60.07                  0.0966568        -52.1757         0.995617         156.953         0.995369         156.998        0.0969529        -173.846
60.08                  0.0967942        -52.1737         0.995633         156.917         0.995375         156.962         0.097131        -173.926
60.09                  0.0969316        -52.1718         0.995648         156.882          0.99538         156.926        0.0973088        -174.005
60.1                   0.0970691          -52.17         0.995663         156.846         0.995386          156.89        0.0974863        -174.083
60.11                  0.0972066        -52.1683         0.995678          156.81         0.995391         156.854        0.0976634        -174.162
60.12                   0.097344        -52.1667         0.995691         156.774         0.995396         156.818        0.0978401         -174.24
60.13                  0.0974815        -52.1653         0.995705         156.739         0.995401         156.782        0.0980165        -174.318
60.14                  0.0976191         -52.164         0.995717         156.703         0.995405         156.746        0.0981925        -174.395
60.15                  0.0977566        -52.1628         0.995729         156.667         0.995409          156.71        0.0983681        -174.473
60.16                  0.0978942        -52.1617         0.995741         156.632         0.995413         156.674        0.0985434         -174.55
60.17                  0.0980317        -52.1607         0.995752         156.596         0.995417         156.638        0.0987184        -174.626
60.18                  0.0981693        -52.1599         0.995762          156.56         0.995421         156.602         0.098893        -174.703
60.19                  0.0983069        -52.1591         0.995772         156.524         0.995424         156.565        0.0990672        -174.779
60.2                   0.0984445        -52.1585         0.995782         156.489         0.995427         156.529        0.0992411        -174.855
60.21                  0.0985821         -52.158          0.99579         156.453          0.99543         156.493        0.0994146        -174.931
60.22                  0.0987198        -52.1576         0.995799         156.417         0.995432         156.457        0.0995878        -175.006
60.23                  0.0988574        -52.1573         0.995807         156.381         0.995434         156.421        0.0997607        -175.082
60.24                  0.0989951        -52.1571         0.995814         156.346         0.995437         156.385        0.0999332        -175.157
60.25                  0.0991327         -52.157         0.995821          156.31         0.995438         156.349         0.100105        -175.231
60.26                  0.0992704         -52.157         0.995827         156.274          0.99544         156.313         0.100277        -175.306
60.27                  0.0994081        -52.1572         0.995832         156.238         0.995441         156.278         0.100449         -175.38
60.28                  0.0995458        -52.1574         0.995838         156.203         0.995442         156.242          0.10062        -175.454
60.29                  0.0996835        -52.1578         0.995842         156.167         0.995443         156.206         0.100791        -175.528
60.3                   0.0998212        -52.1582         0.995847         156.131         0.995444          156.17         0.100961        -175.601
60.31                   0.099959        -52.1588          0.99585         156.095         0.995444         156.134         0.101131        -175.674
60.32                   0.100097        -52.1595         0.995854          156.06         0.995444         156.098         0.101301        -175.747
60.33                   0.100234        -52.1602         0.995856         156.024         0.995444         156.062          0.10147         -175.82
60.34                   0.100372        -52.1611         0.995859         155.988         0.995443         156.026          0.10164        -175.893
60.35                    0.10051        -52.1621         0.995861         155.952         0.995443          155.99         0.101808        -175.965
60.36                   0.100648        -52.1631         0.995862         155.916         0.995442         155.954         0.101977        -176.037
60.37                   0.100785        -52.1643         0.995863         155.881          0.99544         155.918         0.102145        -176.109
60.38                   0.100923        -52.1656         0.995863         155.845         0.995439         155.882         0.102313         -176.18
60.39                   0.101061        -52.1669         0.995864         155.809         0.995437         155.846          0.10248        -176.252
60.4                    0.101199        -52.1684         0.995863         155.773         0.995435          155.81         0.102647        -176.323
60.41                   0.101337        -52.1699         0.995862         155.737         0.995433         155.774         0.102814        -176.394
60.42                   0.101474        -52.1716         0.995861         155.701          0.99543         155.739         0.102981        -176.464
60.43                   0.101612        -52.1733         0.995859         155.666         0.995427         155.703         0.103147        -176.535
60.44                    0.10175        -52.1751         0.995857          155.63         0.995424         155.667         0.103313        -176.605
60.45                   0.101888        -52.1771         0.995855         155.594         0.995421         155.631         0.103478        -176.675
60.46                   0.102025        -52.1791         0.995852         155.558         0.995417         155.595         0.103643        -176.745
60.47                   0.102163        -52.1812         0.995848         155.522         0.995413         155.559         0.103808        -176.814
60.48                   0.102301        -52.1834         0.995845         155.486         0.995409         155.523         0.103973        -176.884
60.49                   0.102439        -52.1856          0.99584         155.451         0.995404         155.488         0.104137        -176.953
60.5                    0.102577         -52.188         0.995836         155.415           0.9954         155.452         0.104301        -177.022
60.51                   0.102714        -52.1905         0.995831         155.379         0.995394         155.416         0.104464        -177.091
60.52                   0.102852         -52.193         0.995825         155.343         0.995389          155.38         0.104628        -177.159
60.53                    0.10299        -52.1956          0.99582         155.307         0.995383         155.344          0.10479        -177.228
60.54                   0.103128        -52.1983         0.995814         155.271         0.995377         155.308         0.104953        -177.296
60.55                   0.103266        -52.2011         0.995807         155.235         0.995371         155.272         0.105115        -177.364
60.56                   0.103403         -52.204           0.9958         155.199         0.995365         155.237         0.105277        -177.431
60.57                   0.103541        -52.2069         0.995793         155.163         0.995358         155.201         0.105439        -177.499
60.58                   0.103679        -52.2099         0.995785         155.127         0.995351         155.165           0.1056        -177.566
60.59                   0.103817         -52.213         0.995777         155.092         0.995343         155.129         0.105761        -177.633
60.6                    0.103955        -52.2162         0.995769         155.056         0.995336         155.093         0.105922          -177.7
60.61                   0.104092        -52.2194          0.99576          155.02         0.995328         155.058         0.106082        -177.767
60.62                    0.10423        -52.2227         0.995751         154.984         0.995319         155.022         0.106242        -177.833
60.63                   0.104368        -52.2261         0.995742         154.948         0.995311         154.986         0.106402        -177.899
60.64                   0.104506        -52.2296         0.995732         154.912         0.995302          154.95         0.106561        -177.966
60.65                   0.104644        -52.2331         0.995722         154.876         0.995292         154.914         0.106721        -178.031
60.66                   0.104781        -52.2367         0.995712          154.84         0.995283         154.878         0.106879        -178.097
60.67                   0.104919        -52.2404         0.995701         154.804         0.995273         154.843         0.107038        -178.163
60.68                   0.105057        -52.2442          0.99569         154.768         0.995263         154.807         0.107196        -178.228
60.69                   0.105195         -52.248         0.995679         154.732         0.995252         154.771         0.107354        -178.293
60.7                    0.105333        -52.2518         0.995667         154.696         0.995242         154.735         0.107511        -178.358
60.71                   0.105471        -52.2558         0.995655          154.66         0.995231         154.699         0.107668        -178.423
60.72                   0.105608        -52.2598         0.995643         154.624         0.995219         154.664         0.107825        -178.487
60.73                   0.105746        -52.2638          0.99563         154.588         0.995207         154.628         0.107982        -178.552
60.74                   0.105884        -52.2679         0.995618         154.552         0.995195         154.592         0.108138        -178.616
60.75                   0.106022        -52.2721         0.995604         154.516         0.995183         154.556         0.108294         -178.68
60.76                    0.10616        -52.2763         0.995591          154.48          0.99517          154.52         0.108449        -178.744
60.77                   0.106297        -52.2806         0.995577         154.444         0.995158         154.485         0.108605        -178.807
60.78                   0.106435        -52.2849         0.995563         154.408         0.995144         154.449          0.10876        -178.871
60.79                   0.106573        -52.2893         0.995549         154.372         0.995131         154.413         0.108914        -178.934
60.8                    0.106711        -52.2938         0.995534         154.336         0.995117         154.377         0.109068        -178.997
60.81                   0.106849        -52.2983         0.995519           154.3         0.995103         154.341         0.109222         -179.06
60.82                   0.106987        -52.3028         0.995504         154.264         0.995088         154.306         0.109376        -179.123
60.83                   0.107125        -52.3074         0.995489         154.228         0.995073          154.27         0.109529        -179.185
60.84                   0.107262         -52.312         0.995473         154.192         0.995058         154.234         0.109682        -179.248
60.85                     0.1074        -52.3167         0.995457         154.156         0.995043         154.198         0.109835         -179.31
60.86                   0.107538        -52.3214         0.995441          154.12         0.995027         154.162         0.109987        -179.372
60.87                   0.107676        -52.3262         0.995425         154.084         0.995011         154.127         0.110139        -179.434
60.88                   0.107814         -52.331         0.995408         154.047         0.994994         154.091          0.11029        -179.495
60.89                   0.107952        -52.3359         0.995391         154.011         0.994977         154.055         0.110441        -179.557
60.9                     0.10809        -52.3407         0.995374         153.975          0.99496         154.019         0.110592        -179.618
60.91                   0.108228        -52.3456         0.995357         153.939         0.994943         153.983         0.110743        -179.679
60.92                   0.108366        -52.3506         0.995339         153.903         0.994925         153.947         0.110893         -179.74
60.93                   0.108504        -52.3556         0.995321         153.867         0.994907         153.912         0.111043        -179.801
60.94                   0.108642        -52.3606         0.995303         153.831         0.994889         153.876         0.111192        -179.861
60.95                    0.10878        -52.3656         0.995285         153.795          0.99487          153.84         0.111341        -179.922
60.96                   0.108918        -52.3707         0.995266         153.759         0.994852         153.804          0.11149        -179.982
60.97                   0.109056        -52.3758         0.995247         153.722         0.994832         153.768         0.111638         179.958
60.98                   0.109194        -52.3809         0.995228         153.686         0.994813         153.732         0.111786         179.898
60.99                   0.109333        -52.3861         0.995209          153.65         0.994793         153.696         0.111934         179.838
61                      0.109471        -52.3912          0.99519         153.614         0.994773         153.661         0.112081         179.779
61.01                   0.109609        -52.3964          0.99517         153.578         0.994752         153.625         0.112228         179.719
61.02                   0.109748        -52.4016          0.99515         153.542         0.994732         153.589         0.112374          179.66
61.03                   0.109886        -52.4068          0.99513         153.506         0.994711         153.553          0.11252         179.601
61.04                   0.110024        -52.4121          0.99511         153.469         0.994689         153.517         0.112666         179.542
61.05                   0.110163        -52.4173         0.995089         153.433         0.994668         153.481         0.112811         179.483
61.06                   0.110301        -52.4225         0.995069         153.397         0.994646         153.445         0.112955         179.425
61.07                    0.11044        -52.4278         0.995048         153.361         0.994624         153.409           0.1131         179.366
61.08                   0.110579        -52.4331         0.995027         153.325         0.994601         153.373         0.113243         179.308
61.09                   0.110717        -52.4384         0.995006         153.289         0.994578         153.337         0.113387          179.25
61.1                    0.110856        -52.4436         0.994984         153.252         0.994555         153.301          0.11353         179.192
61.11                   0.110995        -52.4489         0.994963         153.216         0.994532         153.265         0.113672         179.135
61.12                   0.111134        -52.4542         0.994941          153.18         0.994508         153.229         0.113814         179.077
61.13                   0.111273        -52.4595         0.994919         153.144         0.994485         153.193         0.113956          179.02
61.14                   0.111412        -52.4648         0.994897         153.107          0.99446         153.157         0.114097         178.963
61.15                   0.111551          -52.47         0.994875         153.071         0.994436         153.121         0.114237         178.906
61.16                    0.11169        -52.4753         0.994853         153.035         0.994411         153.085         0.114377         178.849
61.17                    0.11183        -52.4806          0.99483         152.999         0.994387         153.049         0.114516         178.792
61.18                   0.111969        -52.4858         0.994807         152.963         0.994362         153.013         0.114655         178.736
61.19                   0.112109         -52.491         0.994784         152.926         0.994336         152.977         0.114793         178.679
61.2                    0.112249        -52.4963         0.994761          152.89         0.994311         152.941         0.114931         178.623
61.21                   0.112389        -52.5015         0.994738         152.854         0.994285         152.905         0.115068         178.567
61.22                   0.112529        -52.5067         0.994715         152.818         0.994259         152.869         0.115205         178.511
61.23                   0.112669        -52.5118         0.994691         152.781         0.994232         152.833          0.11534         178.456
61.24                   0.112809         -52.517         0.994668         152.745         0.994206         152.797         0.115475           178.4
61.25                    0.11295        -52.5221         0.994644         152.709         0.994179          152.76          0.11561         178.345
61.26                    0.11309        -52.5272          0.99462         152.673         0.994152         152.724         0.115743          178.29
61.27                   0.113231        -52.5323         0.994596         152.636         0.994125         152.688         0.115876         178.234
61.28                   0.113372        -52.5374         0.994572           152.6         0.994098         152.652         0.116008          178.18
61.29                   0.113513        -52.5424         0.994547         152.564          0.99407         152.616         0.116139         178.125
61.3                    0.113655        -52.5474         0.994523         152.527         0.994043          152.58          0.11627          178.07
61.31                   0.113796        -52.5524         0.994498         152.491         0.994015         152.543         0.116399         178.016
61.32                   0.113938        -52.5573         0.994473         152.455         0.993987         152.507         0.116528         177.961
61.33                    0.11408        -52.5622         0.994449         152.419         0.993959         152.471         0.116655         177.907
61.34                   0.114222        -52.5671         0.994424         152.382          0.99393         152.435         0.116782         177.853
61.35                   0.114365         -52.572         0.994398         152.346         0.993902         152.398         0.116907         177.799
61.36                   0.114508        -52.5768         0.994373          152.31         0.993873         152.362         0.117032         177.745
61.37                   0.114651        -52.5816         0.994348         152.273         0.993844         152.326         0.117155         177.692
61.38                   0.114794        -52.5863         0.994322         152.237         0.993815         152.289         0.117277         177.638
61.39                   0.114938         -52.591         0.994297         152.201         0.993786         152.253         0.117397         177.584
61.4                    0.115082        -52.5957         0.994271         152.164         0.993757         152.217         0.117516         177.531
61.41                   0.115226        -52.6003         0.994245         152.128         0.993728          152.18         0.117634         177.477
61.42                   0.115371         -52.605         0.994219         152.092         0.993698         152.144          0.11775         177.424
61.43                   0.115516        -52.6095         0.994193         152.055         0.993669         152.107         0.117864          177.37
61.44                   0.115662        -52.6141         0.994167         152.019         0.993639         152.071         0.117977         177.317
61.45                   0.115807        -52.6186         0.994141         151.983          0.99361         152.034         0.118087         177.263
61.46                   0.115954        -52.6231         0.994114         151.946          0.99358         151.998         0.118196         177.209
61.47                     0.1161        -52.6275         0.994088          151.91          0.99355         151.961         0.118303         177.155
61.48                   0.116247         -52.632         0.994061         151.873          0.99352         151.925         0.118407         177.101
61.49                   0.116395        -52.6364         0.994035         151.837          0.99349         151.888         0.118509         177.047
61.5                    0.116543        -52.6408         0.994008         151.801          0.99346         151.852         0.118608         176.992
61.51                   0.116692        -52.6451         0.993981         151.764          0.99343         151.815         0.118705         176.936
61.52                   0.116841        -52.6495         0.993954         151.728           0.9934         151.779         0.118799         176.881
61.53                    0.11699        -52.6538         0.993927         151.692          0.99337         151.742          0.11889         176.824
61.54                    0.11714        -52.6582           0.9939         151.655         0.993339         151.706         0.118977         176.767
61.55                   0.117291        -52.6625         0.993872         151.619         0.993309         151.669         0.119061         176.709
61.56                   0.117442        -52.6668         0.993845         151.582         0.993279         151.632         0.119142         176.649
61.57                   0.117594        -52.6712         0.993818         151.546         0.993249         151.596         0.119219         176.588
61.58                   0.117747        -52.6755          0.99379         151.509         0.993218         151.559         0.119292         176.526
61.59                     0.1179        -52.6799         0.993762         151.473         0.993188         151.522         0.119361         176.461
61.6                    0.118054        -52.6843         0.993734         151.437         0.993158         151.486         0.119426         176.395
61.61                   0.118209        -52.6888         0.993707           151.4         0.993127         151.449         0.119487         176.325
61.62                   0.118364        -52.6933         0.993679         151.364         0.993097         151.412         0.119544         176.253
61.63                    0.11852        -52.6978         0.993651         151.327         0.993067         151.375         0.119598         176.177
61.64                   0.118677        -52.7024         0.993622         151.291         0.993037         151.339         0.119648         176.096
61.65                   0.118835        -52.7071         0.993594         151.254         0.993006         151.302         0.119695         176.011
61.66                   0.118994        -52.7119         0.993566         151.218         0.992976         151.265         0.119741         175.921
61.67                   0.119153        -52.7167         0.993537         151.181         0.992946         151.228         0.119786         175.824
61.68                   0.119313        -52.7217         0.993509         151.145         0.992916         151.191         0.119833          175.72
61.69                   0.119474        -52.7268          0.99348         151.108         0.992886         151.154         0.119883          175.61
61.7                    0.119636        -52.7321         0.993452         151.072         0.992857         151.118          0.11994         175.491
61.71                   0.119799        -52.7375         0.993423         151.035         0.992827         151.081         0.120006         175.365
61.72                   0.119963        -52.7431         0.993395         150.999         0.992798         151.044         0.120085          175.23
61.73                   0.120128        -52.7488         0.993367         150.962         0.992768         151.007         0.120182         175.088
61.74                   0.120294        -52.7548         0.993338         150.926         0.992739          150.97           0.1203          174.94
61.75                   0.120461         -52.761          0.99331         150.889         0.992711         150.933         0.120443         174.788
61.76                   0.120629        -52.7674         0.993282         150.853         0.992682         150.896         0.120615         174.633
61.77                   0.120798        -52.7741         0.993254         150.816         0.992654         150.859         0.120818         174.479
61.78                   0.120967         -52.781         0.993226          150.78         0.992627         150.822         0.121052         174.328
61.79                   0.121138        -52.7883         0.993199         150.743         0.992599         150.785         0.121315         174.184
61.8                     0.12131        -52.7959         0.993171         150.707         0.992572         150.748         0.121605          174.05
61.81                   0.121483        -52.8039         0.993144          150.67         0.992545         150.711         0.121916         173.928
61.82                   0.121657        -52.8122         0.993117         150.633         0.992519         150.674         0.122243         173.819
61.83                   0.121832         -52.821          0.99309         150.597         0.992493         150.637         0.122578         173.724
61.84                   0.122009        -52.8301         0.993063          150.56         0.992467           150.6         0.122918         173.642
61.85                   0.122186        -52.8397         0.993035         150.524         0.992441         150.562         0.123254         173.574
61.86                   0.122364        -52.8498         0.993008         150.487         0.992415         150.525         0.123584         173.518
61.87                   0.122543        -52.8604         0.992981         150.451          0.99239         150.488         0.123903         173.471
61.88                   0.122723        -52.8715         0.992953         150.414         0.992364         150.451          0.12421         173.433
61.89                   0.122905        -52.8831         0.992926         150.378         0.992339         150.414         0.124503         173.402
61.9                    0.123087        -52.8954         0.992898         150.341         0.992313         150.377         0.124782         173.375
61.91                    0.12327        -52.9082         0.992871         150.305         0.992288          150.34         0.125046         173.352
61.92                   0.123454        -52.9217         0.992843         150.268         0.992263         150.303         0.125297         173.332
61.93                   0.123639        -52.9358         0.992815         150.232         0.992238         150.266         0.125535         173.313
61.94                   0.123824        -52.9505         0.992787         150.195         0.992213         150.229         0.125761         173.296
61.95                   0.124011         -52.966         0.992759         150.159         0.992188         150.192         0.125976         173.278
61.96                   0.124198        -52.9822         0.992731         150.122         0.992164         150.155         0.126181          173.26
61.97                   0.124385        -52.9992         0.992703         150.086         0.992139         150.118         0.126378         173.242