! TOUCHSTONE file generated by CST MICROWAVE STUDIO
! Date and time: Tue Feb 27 23:06:34 2024
! Project name: material_angular.cst
! Parameters = {Yi=4; iiii=5; exis2=5; exis=5; X=5; Z=5; Y=2}
! Header version: 2018
! Port assignment regex: !\s*Touchstone port\s*([0-9]+)\s*=\s*(CST MWS port|CST DS port)\s*([0-9]+|Zmin|Zmax)\s*\(\"(.*)\"\)(\s*mode\s*([0-9]+))?.*
! Touchstone port assignment:
! Touchstone port 1 = CST MWS port 1 ("")
! Touchstone port 2 = CST MWS port 2 ("")
# GHz S MA R 376.7
60                      0.103179        -156.706          0.99483         157.448         0.994798          157.45         0.102985        -68.2883
60.01                   0.104618        -157.134         0.994654         157.331         0.994635         157.332          0.10437        -68.1461
60.02                    0.10583        -157.512         0.994507         157.227         0.994496         157.228         0.105555        -68.0113
60.03                   0.106868        -157.848          0.99438         157.133         0.994375         157.134         0.106584        -67.8863
60.04                   0.107772         -158.15         0.994269         157.048         0.994268         157.048          0.10749         -67.772
60.05                    0.10857        -158.423         0.994171         156.969         0.994173         156.969         0.108296         -67.668
60.06                   0.109283        -158.671         0.994084         156.895         0.994088         156.896         0.109019        -67.5738
60.07                   0.109926        -158.899         0.994005         156.826          0.99401         156.826         0.109676        -67.4888
60.08                   0.110511        -159.109         0.993933         156.761         0.993939         156.761         0.110276         -67.412
60.09                   0.111049        -159.304         0.993867         156.698         0.993874         156.699         0.110828        -67.3427
60.1                    0.111546        -159.486         0.993806         156.639         0.993813         156.639          0.11134        -67.2802
60.11                   0.112008        -159.656         0.993749         156.581         0.993756         156.582         0.111818        -67.2239
60.12                   0.112441        -159.817         0.993696         156.526         0.993703         156.526         0.112265        -67.1731
60.13                   0.112849        -159.968         0.993646         156.472         0.993653         156.473         0.112686        -67.1274
60.14                   0.113234        -160.112         0.993599          156.42         0.993606          156.42         0.113084        -67.0862
60.15                     0.1136        -160.248         0.993554         156.369         0.993561          156.37         0.113463        -67.0491
60.16                    0.11395        -160.379         0.993512          156.32         0.993517          156.32         0.113823        -67.0158
60.17                   0.114283        -160.503         0.993471         156.271         0.993476         156.271         0.114168         -66.986
60.18                   0.114604        -160.623         0.993431         156.224         0.993437         156.224         0.114499        -66.9592
60.19                   0.114913        -160.738         0.993394         156.177         0.993399         156.177         0.114817        -66.9353
60.2                    0.115211         -160.85         0.993357         156.131         0.993362         156.131         0.115124        -66.9141
60.21                   0.115499        -160.957         0.993322         156.085         0.993326         156.085         0.115421        -66.8953
60.22                   0.115778        -161.061         0.993288         156.041         0.993292         156.041         0.115708        -66.8787
60.23                    0.11605        -161.162         0.993255         155.996         0.993258         155.996         0.115988        -66.8641
60.24                   0.116315         -161.26         0.993222         155.953         0.993226         155.953         0.116259        -66.8515
60.25                   0.116573        -161.355         0.993191          155.91         0.993194          155.91         0.116524        -66.8406
60.26                   0.116825        -161.448          0.99316         155.867         0.993163         155.867         0.116782        -66.8314
60.27                   0.117071        -161.539          0.99313         155.824         0.993132         155.824         0.117034        -66.8237
60.28                   0.117313        -161.628         0.993101         155.782         0.993102         155.782         0.117281        -66.8174
60.29                    0.11755        -161.715         0.993072         155.741         0.993073         155.741         0.117523        -66.8124
60.3                    0.117783          -161.8         0.993043         155.699         0.993045         155.699          0.11776        -66.8087
60.31                   0.118011        -161.883         0.993015         155.658         0.993016         155.658         0.117993        -66.8062
60.32                   0.118236        -161.965         0.992988         155.618         0.992989         155.618         0.118223        -66.8047
60.33                   0.118458        -162.045         0.992961         155.577         0.992961         155.577         0.118448        -66.8042
60.34                   0.118677        -162.124         0.992934         155.537         0.992934         155.537          0.11867        -66.8047
60.35                   0.118892        -162.202         0.992908         155.497         0.992908         155.497         0.118889        -66.8062
60.36                   0.119105        -162.278         0.992882         155.457         0.992882         155.457         0.119105        -66.8084
60.37                   0.119315        -162.353         0.992856         155.417         0.992856         155.417         0.119318        -66.8115
60.38                   0.119523        -162.428          0.99283         155.378          0.99283         155.378         0.119529        -66.8154
60.39                   0.119729        -162.501         0.992805         155.338         0.992805         155.338         0.119737        -66.8199
60.4                    0.119932        -162.573          0.99278         155.299          0.99278         155.299         0.119943        -66.8252
60.41                   0.120134        -162.645         0.992756          155.26         0.992755          155.26         0.120146        -66.8311
60.42                   0.120334        -162.715         0.992731         155.221          0.99273         155.221         0.120348        -66.8376
60.43                   0.120531        -162.785         0.992707         155.182         0.992706         155.182         0.120548        -66.8447
60.44                   0.120728        -162.854         0.992683         155.144         0.992682         155.144         0.120746        -66.8524
60.45                   0.120922        -162.922         0.992659         155.105         0.992657         155.105         0.120942        -66.8606
60.46                   0.121115         -162.99         0.992635         155.067         0.992634         155.067         0.121137        -66.8693
60.47                   0.121307        -163.057         0.992611         155.029          0.99261         155.029          0.12133        -66.8785
60.48                   0.121498        -163.123         0.992588          154.99         0.992586          154.99         0.121521        -66.8882
60.49                   0.121687        -163.189         0.992565         154.952         0.992563         154.952         0.121712        -66.8983
60.5                    0.121875        -163.254         0.992541         154.914          0.99254         154.914         0.121901        -66.9089
60.51                   0.122062        -163.318         0.992518         154.876         0.992516         154.876         0.122088        -66.9198
60.52                   0.122247        -163.382         0.992495         154.839         0.992493         154.839         0.122275        -66.9311
60.53                   0.122432        -163.446         0.992472         154.801          0.99247         154.801          0.12246        -66.9429
60.54                   0.122616        -163.509          0.99245         154.763         0.992448         154.763         0.122645        -66.9549
60.55                   0.122799        -163.571         0.992427         154.726         0.992425         154.725         0.122828        -66.9673
60.56                    0.12298        -163.634         0.992404         154.688         0.992402         154.688         0.123011        -66.9801
60.57                   0.123162        -163.695         0.992382          154.65          0.99238          154.65         0.123192        -66.9932
60.58                   0.123342        -163.757         0.992359         154.613         0.992357         154.613         0.123373        -67.0066
60.59                   0.123521        -163.817         0.992337         154.576         0.992335         154.576         0.123552        -67.0202
60.6                      0.1237        -163.878         0.992315         154.538         0.992313         154.538         0.123731        -67.0342
60.61                   0.123878        -163.938         0.992292         154.501          0.99229         154.501          0.12391        -67.0485
60.62                   0.124055        -163.998          0.99227         154.464         0.992268         154.464         0.124087         -67.063
60.63                   0.124232        -164.057         0.992248         154.427         0.992246         154.427         0.124264        -67.0778
60.64                   0.124408        -164.116         0.992226          154.39         0.992224          154.39          0.12444        -67.0928
60.65                   0.124583        -164.175         0.992204         154.353         0.992202         154.353         0.124615        -67.1081
60.66                   0.124758        -164.234         0.992182         154.316          0.99218         154.316          0.12479        -67.1236
60.67                   0.124932        -164.292          0.99216         154.279         0.992158         154.279         0.124964        -67.1393
60.68                   0.125106         -164.35         0.992138         154.242         0.992136         154.242         0.125138        -67.1553
60.69                   0.125279        -164.407         0.992117         154.205         0.992114         154.205         0.125311        -67.1715
60.7                    0.125452        -164.464         0.992095         154.168         0.992093         154.168         0.125484        -67.1879
60.71                   0.125624        -164.521         0.992073         154.131         0.992071         154.131         0.125656        -67.2045
60.72                   0.125795        -164.578         0.992051         154.095         0.992049         154.095         0.125827        -67.2213
60.73                   0.125967        -164.635          0.99203         154.058         0.992027         154.058         0.125998        -67.2383
60.74                   0.126137        -164.691         0.992008         154.021         0.992006         154.021         0.126169        -67.2554
60.75                   0.126308        -164.747         0.991986         153.985         0.991984         153.985         0.126339        -67.2728
60.76                   0.126478        -164.803         0.991965         153.948         0.991963         153.948         0.126509        -67.2903
60.77                   0.126648        -164.858         0.991943         153.911         0.991941         153.911         0.126678         -67.308
60.78                   0.126817        -164.914         0.991922         153.875         0.991919         153.875         0.126847        -67.3259
60.79                   0.126986        -164.969           0.9919         153.838         0.991898         153.838         0.127016        -67.3439
60.8                    0.127154        -165.024         0.991878         153.802         0.991876         153.802         0.127184        -67.3621
60.81                   0.127322        -165.079         0.991857         153.765         0.991855         153.765         0.127352        -67.3805
60.82                    0.12749        -165.133         0.991835         153.729         0.991833         153.729         0.127519         -67.399
60.83                   0.127658        -165.187         0.991814         153.692         0.991812         153.692         0.127686        -67.4177
60.84                   0.127825        -165.242         0.991793         153.656          0.99179         153.656         0.127853        -67.4365
60.85                   0.127992        -165.296         0.991771          153.62         0.991769          153.62         0.128019        -67.4554
60.86                   0.128158        -165.349          0.99175         153.583         0.991748         153.583         0.128186        -67.4745
60.87                   0.128325        -165.403         0.991728         153.547         0.991726         153.547         0.128352        -67.4937
60.88                   0.128491        -165.456         0.991707         153.511         0.991705         153.511         0.128517        -67.5131
60.89                   0.128657         -165.51         0.991685         153.474         0.991683         153.474         0.128683        -67.5326
60.9                    0.128822        -165.563         0.991664         153.438         0.991662         153.438         0.128848        -67.5522
60.91                   0.128987        -165.616         0.991642         153.402         0.991641         153.402         0.129013        -67.5719
60.92                   0.129152        -165.668         0.991621         153.366         0.991619         153.366         0.129177        -67.5918
60.93                   0.129317        -165.721           0.9916         153.329         0.991598         153.329         0.129341        -67.6118
60.94                   0.129482        -165.774         0.991578         153.293         0.991577         153.293         0.129506        -67.6319
60.95                   0.129646        -165.826         0.991557         153.257         0.991555         153.257         0.129669        -67.6522
60.96                    0.12981        -165.878         0.991535         153.221         0.991534         153.221         0.129833        -67.6725
60.97                   0.129974         -165.93         0.991514         153.185         0.991512         153.185         0.129996         -67.693
60.98                   0.130138        -165.982         0.991493         153.148         0.991491         153.148          0.13016        -67.7135
60.99                   0.130301        -166.034         0.991471         153.112          0.99147         153.112         0.130323        -67.7342
61                      0.130465        -166.085          0.99145         153.076         0.991448         153.076         0.130486         -67.755
61.01                   0.130628        -166.137         0.991428          153.04         0.991427          153.04         0.130648        -67.7759
61.02                   0.130791        -166.188         0.991407         153.004         0.991406         153.004         0.130811        -67.7969
61.03                   0.130953        -166.239         0.991386         152.968         0.991384         152.968         0.130973         -67.818
61.04                   0.131116         -166.29         0.991364         152.932         0.991363         152.932         0.131135        -67.8392
61.05                   0.131278        -166.341         0.991343         152.896         0.991341         152.896         0.131297        -67.8605
61.06                    0.13144        -166.392         0.991321          152.86          0.99132          152.86         0.131459        -67.8819
61.07                   0.131602        -166.443           0.9913         152.824         0.991299         152.824          0.13162        -67.9034
61.08                   0.131764        -166.494         0.991279         152.788         0.991277         152.788         0.131782         -67.925
61.09                   0.131926        -166.544         0.991257         152.752         0.991256         152.752         0.131943        -67.9467
61.1                    0.132088        -166.594         0.991236         152.716         0.991234         152.716         0.132104        -67.9684
61.11                   0.132249        -166.645         0.991214          152.68         0.991213          152.68         0.132265        -67.9903
61.12                    0.13241        -166.695         0.991193         152.644         0.991192         152.644         0.132426        -68.0123
61.13                   0.132572        -166.745         0.991171         152.608          0.99117         152.608         0.132587        -68.0343
61.14                   0.132733        -166.795          0.99115         152.572         0.991149         152.572         0.132747        -68.0564
61.15                   0.132893        -166.844         0.991128         152.536         0.991127         152.536         0.132908        -68.0787
61.16                   0.133054        -166.894         0.991107           152.5         0.991106           152.5         0.133068         -68.101
61.17                   0.133215        -166.944         0.991085         152.464         0.991084         152.464         0.133228        -68.1234
61.18                   0.133375        -166.993         0.991064         152.428         0.991063         152.428         0.133388        -68.1458
61.19                   0.133536        -167.043         0.991042         152.392         0.991041         152.392         0.133548        -68.1684
61.2                    0.133696        -167.092         0.991021         152.356          0.99102         152.356         0.133708         -68.191
61.21                   0.133856        -167.141         0.990999         152.321         0.990998         152.321         0.133868        -68.2138
61.22                   0.134016         -167.19         0.990978         152.285         0.990977         152.285         0.134027        -68.2366
61.23                   0.134176        -167.239         0.990956         152.249         0.990955         152.249         0.134187        -68.2594
61.24                   0.134336        -167.288         0.990934         152.213         0.990934         152.213         0.134346        -68.2824
61.25                   0.134495        -167.337         0.990913         152.177         0.990912         152.177         0.134505        -68.3054
61.26                   0.134655        -167.386         0.990891         152.141          0.99089         152.141         0.134665        -68.3285
61.27                   0.134814        -167.434          0.99087         152.105         0.990869         152.105         0.134824        -68.3517
61.28                   0.134974        -167.483         0.990848         152.069         0.990847         152.069         0.134983         -68.375
61.29                   0.135133        -167.531         0.990826         152.034         0.990826         152.034         0.135142        -68.3983
61.3                    0.135292         -167.58         0.990805         151.998         0.990804         151.998           0.1353        -68.4218
61.31                   0.135451        -167.628         0.990783         151.962         0.990782         151.962         0.135459        -68.4452
61.32                    0.13561        -167.676         0.990761         151.926         0.990761         151.926         0.135618        -68.4688
61.33                   0.135769        -167.724         0.990739          151.89         0.990739          151.89         0.135776        -68.4924
61.34                   0.135928        -167.772         0.990718         151.855         0.990717         151.855         0.135935        -68.5161
61.35                   0.136087         -167.82         0.990696         151.819         0.990695         151.819         0.136093        -68.5399
61.36                   0.136246        -167.868         0.990674         151.783         0.990674         151.783         0.136252        -68.5638
61.37                   0.136404        -167.916         0.990652         151.747         0.990652         151.747          0.13641        -68.5877
61.38                   0.136563        -167.964         0.990631         151.711          0.99063         151.711         0.136568        -68.6117
61.39                   0.136721        -168.011         0.990609         151.676         0.990608         151.676         0.136726        -68.6357
61.4                    0.136879        -168.059         0.990587          151.64         0.990587          151.64         0.136885        -68.6599
61.41                   0.137038        -168.106         0.990565         151.604         0.990565         151.604         0.137043         -68.684
61.42                   0.137196        -168.154         0.990543         151.568         0.990543         151.568         0.137201        -68.7083
61.43                   0.137354        -168.201         0.990521         151.532         0.990521         151.532         0.137358        -68.7326
61.44                   0.137512        -168.248         0.990499         151.497         0.990499         151.497         0.137516         -68.757
61.45                    0.13767        -168.295         0.990478         151.461         0.990477         151.461         0.137674        -68.7815
61.46                   0.137828        -168.342         0.990456         151.425         0.990455         151.425         0.137832         -68.806
61.47                   0.137986        -168.389         0.990434         151.389         0.990433         151.389          0.13799        -68.8306
61.48                   0.138144        -168.436         0.990412         151.354         0.990411         151.354         0.138147        -68.8553
61.49                   0.138302        -168.483          0.99039         151.318         0.990389         151.318         0.138305          -68.88
61.5                     0.13846         -168.53         0.990368         151.282         0.990367         151.282         0.138462        -68.9048
61.51                   0.138618        -168.577         0.990346         151.246         0.990345         151.246          0.13862        -68.9296
61.52                   0.138775        -168.623         0.990324         151.211         0.990323         151.211         0.138777        -68.9546
61.53                   0.138933         -168.67         0.990302         151.175         0.990301         151.175         0.138935        -68.9795
61.54                    0.13909        -168.716         0.990279         151.139         0.990279         151.139         0.139092        -69.0046
61.55                   0.139248        -168.763         0.990257         151.103         0.990257         151.103          0.13925        -69.0297
61.56                   0.139406        -168.809         0.990235         151.068         0.990235         151.068         0.139407        -69.0549
61.57                   0.139563        -168.855         0.990213         151.032         0.990213         151.032         0.139564        -69.0801
61.58                   0.139721        -168.902         0.990191         150.996         0.990191         150.996         0.139722        -69.1054
61.59                   0.139878        -168.948         0.990169         150.961         0.990169         150.961         0.139879        -69.1308
61.6                    0.140035        -168.994         0.990146         150.925         0.990146         150.925         0.140036        -69.1562
61.61                   0.140193         -169.04         0.990124         150.889         0.990124         150.889         0.140193        -69.1817
61.62                    0.14035        -169.086         0.990102         150.853         0.990102         150.853         0.140351        -69.2072
61.63                   0.140507        -169.132          0.99008         150.818          0.99008         150.818         0.140508        -69.2328
61.64                   0.140665        -169.178         0.990057         150.782         0.990057         150.782         0.140665        -69.2585
61.65                   0.140822        -169.224         0.990035         150.746         0.990035         150.746         0.140822        -69.2842
61.66                   0.140979        -169.269         0.990013          150.71         0.990013          150.71         0.140979          -69.31
61.67                   0.141137        -169.315          0.98999         150.675          0.98999         150.675         0.141137        -69.3359
61.68                   0.141294        -169.361         0.989968         150.639         0.989968         150.639         0.141294        -69.3618
61.69                   0.141451        -169.406         0.989945         150.603         0.989945         150.603         0.141451        -69.3878
61.7                    0.141608        -169.452         0.989923         150.567         0.989923         150.567         0.141608        -69.4138
61.71                   0.141766        -169.497           0.9899         150.532           0.9899         150.532         0.141765        -69.4399
61.72                   0.141923        -169.542         0.989878         150.496         0.989878         150.496         0.141923        -69.4661
61.73                    0.14208        -169.588         0.989855          150.46         0.989855          150.46          0.14208        -69.4923
61.74                   0.142238        -169.633         0.989833         150.424         0.989833         150.424         0.142237        -69.5186
61.75                   0.142395        -169.678          0.98981         150.389          0.98981         150.389         0.142394         -69.545
61.76                   0.142552        -169.723         0.989787         150.353         0.989787         150.353         0.142552        -69.5714
61.77                    0.14271        -169.768         0.989765         150.317         0.989765         150.317         0.142709        -69.5979
61.78                   0.142867        -169.813         0.989742         150.281         0.989742         150.281         0.142866        -69.6244
61.79                   0.143025        -169.858         0.989719         150.246         0.989719         150.246         0.143024         -69.651
61.8                    0.143182        -169.903         0.989696          150.21         0.989697          150.21         0.143181        -69.6777
61.81                    0.14334        -169.948         0.989674         150.174         0.989674         150.174         0.143339        -69.7044
61.82                   0.143497        -169.993         0.989651         150.138         0.989651         150.138         0.143496        -69.7312
61.83                   0.143655        -170.037         0.989628         150.102         0.989628         150.102         0.143654         -69.758
61.84                   0.143812        -170.082         0.989605         150.067         0.989605         150.067         0.143811         -69.785
61.85                    0.14397        -170.127         0.989582         150.031         0.989582         150.031         0.143969        -69.8119
61.86                   0.144128        -170.171         0.989559         149.995         0.989559         149.995         0.144127         -69.839
61.87                   0.144286        -170.216         0.989536         149.959         0.989536         149.959         0.144285        -69.8661
61.88                   0.144444         -170.26         0.989513         149.923         0.989513         149.923         0.144443        -69.8933
61.89                   0.144602        -170.305          0.98949         149.888          0.98949         149.888         0.144601        -69.9205
61.9                     0.14476        -170.349         0.989467         149.852         0.989467         149.852         0.144759        -69.9478
61.91                   0.144918        -170.393         0.989444         149.816         0.989444         149.816         0.144917        -69.9752
61.92                   0.145077        -170.438         0.989421          149.78         0.989421          149.78         0.145076        -70.0026
61.93                   0.145235        -170.482         0.989397         149.744         0.989397         149.744         0.145234        -70.0301
61.94                   0.145394        -170.526         0.989374         149.708         0.989374         149.708         0.145393        -70.0577
61.95                   0.145553         -170.57         0.989351         149.672         0.989351         149.672         0.145552        -70.0853
61.96                   0.145711        -170.614         0.989327         149.637         0.989327         149.637         0.145711        -70.1131