! TOUCHSTONE file generated by CST MICROWAVE STUDIO
! Date and time: Sun Mar  3 12:09:21 2024
! Project name: material_angular.cst
! Parameters = {d=8.6; Yi=5; iiii=5; exis2=5; exis=5; X=5; Z=5; Y=2}
! Header version: 2018
! Port assignment regex: !\s*Touchstone port\s*([0-9]+)\s*=\s*(CST MWS port|CST DS port)\s*([0-9]+|Zmin|Zmax)\s*\(\"(.*)\"\)(\s*mode\s*([0-9]+))?.*
! Touchstone port assignment:
! Touchstone port 1 = CST MWS port 1 ("")
! Touchstone port 2 = CST MWS port 2 ("")
# GHz S MA R 376.7
60                      0.140778        -172.479         0.990039         97.5881         0.989891         97.5876         0.140776        -172.376
60.01                   0.140961        -172.522         0.990009         97.5432         0.989862         97.5425         0.140961         -172.42
60.02                   0.141144        -172.566         0.989979         97.4982         0.989832         97.4974         0.141145        -172.464
60.03                   0.141328         -172.61         0.989948         97.4532         0.989803         97.4524         0.141329        -172.508
60.04                   0.141511        -172.653         0.989918         97.4083         0.989773         97.4073         0.141514        -172.552
60.05                   0.141694        -172.697         0.989888         97.3633         0.989744         97.3623         0.141698        -172.596
60.06                   0.141878        -172.741         0.989858         97.3184         0.989715         97.3172         0.141883         -172.64
60.07                   0.142061        -172.784         0.989828         97.2734         0.989685         97.2722         0.142067        -172.684
60.08                   0.142244        -172.828         0.989798         97.2285         0.989656         97.2272         0.142251        -172.729
60.09                   0.142427        -172.872         0.989768         97.1835         0.989627         97.1822         0.142435        -172.773
60.1                     0.14261        -172.916         0.989738         97.1386         0.989598         97.1372         0.142619        -172.817
60.11                   0.142793         -172.96         0.989708         97.0937         0.989568         97.0922         0.142803        -172.861
60.12                   0.142976        -173.003         0.989678         97.0488         0.989539         97.0472         0.142987        -172.905
60.13                   0.143159        -173.047         0.989648         97.0038          0.98951         97.0022         0.143171        -172.949
60.14                   0.143342        -173.091         0.989618         96.9589         0.989481         96.9573         0.143355        -172.994
60.15                   0.143525        -173.135         0.989589          96.914         0.989452         96.9123         0.143539        -173.038
60.16                   0.143708        -173.179         0.989559         96.8691         0.989423         96.8673         0.143723        -173.082
60.17                   0.143891        -173.222         0.989529         96.8242         0.989393         96.8224         0.143907        -173.126
60.18                   0.144074        -173.266         0.989499         96.7793         0.989364         96.7775          0.14409         -173.17
60.19                   0.144257         -173.31         0.989469         96.7344         0.989335         96.7325         0.144274        -173.215
60.2                    0.144439        -173.354          0.98944         96.6895         0.989306         96.6876         0.144458        -173.259
60.21                   0.144622        -173.398          0.98941         96.6446         0.989277         96.6427         0.144641        -173.303
60.22                   0.144805        -173.442          0.98938         96.5997         0.989248         96.5978         0.144825        -173.347
60.23                   0.144987        -173.486          0.98935         96.5549         0.989219         96.5529         0.145008        -173.392
60.24                    0.14517         -173.53         0.989321           96.51          0.98919          96.508         0.145192        -173.436
60.25                   0.145353        -173.573         0.989291         96.4651         0.989161         96.4631         0.145375         -173.48
60.26                   0.145535        -173.617         0.989261         96.4203         0.989132         96.4183         0.145558        -173.524
60.27                   0.145718        -173.661         0.989232         96.3754         0.989103         96.3734         0.145742        -173.569
60.28                     0.1459        -173.705         0.989202         96.3305         0.989075         96.3285         0.145925        -173.613
60.29                   0.146083        -173.749         0.989173         96.2857         0.989046         96.2837         0.146108        -173.657
60.3                    0.146265        -173.793         0.989143         96.2408         0.989017         96.2388         0.146291        -173.701
60.31                   0.146447        -173.837         0.989113          96.196         0.988988          96.194         0.146474        -173.746
60.32                    0.14663        -173.881         0.989084         96.1512         0.988959         96.1492         0.146657         -173.79
60.33                   0.146812        -173.925         0.989054         96.1063          0.98893         96.1043          0.14684        -173.834
60.34                   0.146994        -173.969         0.989025         96.0615         0.988901         96.0595         0.147023        -173.879
60.35                   0.147176        -174.013         0.988995         96.0167         0.988872         96.0147         0.147206        -173.923
60.36                   0.147358        -174.057         0.988966         95.9718         0.988844         95.9699         0.147389        -173.967
60.37                    0.14754        -174.101         0.988936          95.927         0.988815         95.9251         0.147572        -174.012
60.38                   0.147723        -174.145         0.988907         95.8822         0.988786         95.8803         0.147754        -174.056
60.39                   0.147905        -174.189         0.988877         95.8374         0.988757         95.8355         0.147937          -174.1
60.4                    0.148087        -174.233         0.988848         95.7926         0.988728         95.7907          0.14812        -174.145
60.41                   0.148269        -174.277         0.988818         95.7478           0.9887          95.746         0.148302        -174.189
60.42                    0.14845        -174.321         0.988789          95.703         0.988671         95.7012         0.148485        -174.233
60.43                   0.148632        -174.365          0.98876         95.6582         0.988642         95.6565         0.148667        -174.278
60.44                   0.148814         -174.41          0.98873         95.6134         0.988613         95.6117          0.14885        -174.322
60.45                   0.148996        -174.454         0.988701         95.5686         0.988584          95.567         0.149032        -174.366
60.46                   0.149178        -174.498         0.988671         95.5238         0.988556         95.5222         0.149214        -174.411
60.47                   0.149359        -174.542         0.988642          95.479         0.988527         95.4775         0.149397        -174.455
60.48                   0.149541        -174.586         0.988613         95.4343         0.988498         95.4328         0.149579        -174.499
60.49                   0.149723         -174.63         0.988583         95.3895         0.988469         95.3881         0.149761        -174.544
60.5                    0.149904        -174.674         0.988554         95.3447         0.988441         95.3433         0.149943        -174.588
60.51                   0.150086        -174.718         0.988525            95.3         0.988412         95.2986         0.150125        -174.632
60.52                   0.150267        -174.762         0.988495         95.2552         0.988383         95.2539         0.150307        -174.677
60.53                   0.150449        -174.806         0.988466         95.2105         0.988355         95.2092         0.150489        -174.721
60.54                    0.15063        -174.851         0.988437         95.1657         0.988326         95.1646         0.150671        -174.766
60.55                   0.150812        -174.895         0.988408          95.121         0.988297         95.1199         0.150853         -174.81
60.56                   0.150993        -174.939         0.988378         95.0762         0.988268         95.0752         0.151035        -174.854
60.57                   0.151174        -174.983         0.988349         95.0315          0.98824         95.0305         0.151216        -174.899
60.58                   0.151355        -175.027          0.98832         94.9867         0.988211         94.9859         0.151398        -174.943
60.59                   0.151537        -175.071         0.988291          94.942         0.988182         94.9412          0.15158        -174.988
60.6                    0.151718        -175.116         0.988261         94.8973         0.988154         94.8966         0.151761        -175.032
60.61                   0.151899         -175.16         0.988232         94.8526         0.988125         94.8519         0.151943        -175.076
60.62                    0.15208        -175.204         0.988203         94.8079         0.988096         94.8073         0.152124        -175.121
60.63                   0.152261        -175.248         0.988174         94.7631         0.988067         94.7626         0.152306        -175.165
60.64                   0.152442        -175.292         0.988144         94.7184         0.988039          94.718         0.152487         -175.21
60.65                   0.152623        -175.337         0.988115         94.6737          0.98801         94.6734         0.152668        -175.254
60.66                   0.152804        -175.381         0.988086          94.629         0.987981         94.6288         0.152849        -175.298
60.67                   0.152985        -175.425         0.988057         94.5843         0.987953         94.5842         0.153031        -175.343
60.68                   0.153165        -175.469         0.988028         94.5396         0.987924         94.5396         0.153212        -175.387
60.69                   0.153346        -175.514         0.987999         94.4949         0.987895          94.495         0.153393        -175.432
60.7                    0.153527        -175.558         0.987969         94.4502         0.987867         94.4504         0.153574        -175.476
60.71                   0.153707        -175.602          0.98794         94.4056         0.987838         94.4058         0.153755        -175.521
60.72                   0.153888        -175.646         0.987911         94.3609         0.987809         94.3612         0.153936        -175.565
60.73                   0.154069        -175.691         0.987882         94.3162          0.98778         94.3166         0.154117        -175.609
60.74                   0.154249        -175.735         0.987853         94.2715         0.987752          94.272         0.154297        -175.654
60.75                    0.15443        -175.779         0.987824         94.2269         0.987723         94.2275         0.154478        -175.698
60.76                    0.15461        -175.823         0.987794         94.1822         0.987694         94.1829         0.154659        -175.743
60.77                    0.15479        -175.868         0.987765         94.1375         0.987666         94.1384          0.15484        -175.787
60.78                   0.154971        -175.912         0.987736         94.0929         0.987637         94.0938          0.15502        -175.832
60.79                   0.155151        -175.956         0.987707         94.0482         0.987608         94.0493         0.155201        -175.876
60.8                    0.155331            -176         0.987678         94.0036         0.987579         94.0047         0.155381        -175.921
60.81                   0.155512        -176.045         0.987649         93.9589         0.987551         93.9602         0.155562        -175.965
60.82                   0.155692        -176.089          0.98762         93.9143         0.987522         93.9156         0.155742         -176.01
60.83                   0.155872        -176.133          0.98759         93.8697         0.987493         93.8711         0.155922        -176.054
60.84                   0.156052        -176.178         0.987561          93.825         0.987464         93.8266         0.156103        -176.098
60.85                   0.156232        -176.222         0.987532         93.7804         0.987436         93.7821         0.156283        -176.143
60.86                   0.156412        -176.266         0.987503         93.7358         0.987407         93.7376         0.156463        -176.187
60.87                   0.156592        -176.311         0.987474         93.6912         0.987378         93.6931         0.156643        -176.232
60.88                   0.156772        -176.355         0.987445         93.6465         0.987349         93.6486         0.156823        -176.276
60.89                   0.156951        -176.399         0.987416         93.6019          0.98732         93.6041         0.157003        -176.321
60.9                    0.157131        -176.444         0.987387         93.5573         0.987292         93.5596         0.157183        -176.365
60.91                   0.157311        -176.488         0.987357         93.5127         0.987263         93.5151         0.157363         -176.41
60.92                   0.157491        -176.532         0.987328         93.4681         0.987234         93.4706         0.157543        -176.454
60.93                    0.15767        -176.577         0.987299         93.4235         0.987205         93.4261         0.157723        -176.499
60.94                    0.15785        -176.621          0.98727         93.3789         0.987176         93.3817         0.157902        -176.543
60.95                   0.158029        -176.665         0.987241         93.3343         0.987148         93.3372         0.158082        -176.588
60.96                   0.158209         -176.71         0.987212         93.2897         0.987119         93.2927         0.158262        -176.632
60.97                   0.158388        -176.754         0.987183         93.2451          0.98709         93.2483         0.158441        -176.677
60.98                   0.158568        -176.798         0.987154         93.2006         0.987061         93.2038         0.158621        -176.721
60.99                   0.158747        -176.843         0.987125          93.156         0.987032         93.1594           0.1588        -176.766
61                      0.158926        -176.887         0.987095         93.1114         0.987003         93.1149          0.15898         -176.81
61.01                   0.159105        -176.931         0.987066         93.0668         0.986975         93.0705         0.159159        -176.855
61.02                   0.159285        -176.976         0.987037         93.0223         0.986946          93.026         0.159338        -176.899
61.03                   0.159464         -177.02         0.987008         92.9777         0.986917         92.9816         0.159517        -176.944
61.04                   0.159643        -177.065         0.986979         92.9332         0.986888         92.9372         0.159696        -176.988
61.05                   0.159822        -177.109          0.98695         92.8886         0.986859         92.8927         0.159876        -177.033
61.06                   0.160001        -177.153         0.986921          92.844          0.98683         92.8483         0.160055        -177.077
61.07                    0.16018        -177.198         0.986891         92.7995         0.986801         92.8039         0.160234        -177.122
61.08                   0.160359        -177.242         0.986862          92.755         0.986772         92.7595         0.160413        -177.166
61.09                   0.160537        -177.287         0.986833         92.7104         0.986743         92.7151         0.160591         -177.21
61.1                    0.160716        -177.331         0.986804         92.6659         0.986714         92.6707          0.16077        -177.255
61.11                   0.160895        -177.375         0.986775         92.6213         0.986685         92.6263         0.160949        -177.299
61.12                   0.161073         -177.42         0.986746         92.5768         0.986656         92.5819         0.161128        -177.344
61.13                   0.161252        -177.464         0.986717         92.5323         0.986627         92.5375         0.161306        -177.388
61.14                   0.161431        -177.509         0.986687         92.4878         0.986598         92.4931         0.161485        -177.433
61.15                   0.161609        -177.553         0.986658         92.4432         0.986569         92.4487         0.161664        -177.477
61.16                   0.161788        -177.597         0.986629         92.3987          0.98654         92.4044         0.161842        -177.522
61.17                   0.161966        -177.642           0.9866         92.3542         0.986511           92.36          0.16202        -177.566
61.18                   0.162144        -177.686         0.986571         92.3097         0.986482         92.3156         0.162199        -177.611
61.19                   0.162323        -177.731         0.986542         92.2652         0.986453         92.2712         0.162377        -177.655
61.2                    0.162501        -177.775         0.986512         92.2207         0.986424         92.2269         0.162555          -177.7
61.21                   0.162679         -177.82         0.986483         92.1762         0.986395         92.1825         0.162734        -177.744
61.22                   0.162857        -177.864         0.986454         92.1317         0.986366         92.1382         0.162912        -177.789
61.23                   0.163035        -177.908         0.986425         92.0872         0.986337         92.0938          0.16309        -177.833
61.24                   0.163213        -177.953         0.986396         92.0427         0.986308         92.0495         0.163268        -177.878
61.25                   0.163391        -177.997         0.986366         91.9983         0.986279         92.0051         0.163446        -177.922
61.26                   0.163569        -178.042         0.986337         91.9538          0.98625         91.9608         0.163624        -177.967
61.27                   0.163747        -178.086         0.986308         91.9093         0.986221         91.9165         0.163801        -178.011
61.28                   0.163925        -178.131         0.986279         91.8648         0.986191         91.8721         0.163979        -178.056
61.29                   0.164103        -178.175         0.986249         91.8204         0.986162         91.8278         0.164157          -178.1
61.3                     0.16428        -178.219          0.98622         91.7759         0.986133         91.7835         0.164335        -178.145
61.31                   0.164458        -178.264         0.986191         91.7314         0.986104         91.7391         0.164512        -178.189
61.32                   0.164636        -178.308         0.986162          91.687         0.986075         91.6948          0.16469        -178.234
61.33                   0.164813        -178.353         0.986132         91.6425         0.986045         91.6505         0.164867        -178.278
61.34                   0.164991        -178.397         0.986103         91.5981         0.986016         91.6062         0.165045        -178.323
61.35                   0.165168        -178.442         0.986074         91.5536         0.985987         91.5619         0.165222        -178.367
61.36                   0.165346        -178.486         0.986044         91.5092         0.985958         91.5176         0.165399        -178.412
61.37                   0.165523        -178.531         0.986015         91.4647         0.985928         91.4733         0.165577        -178.456
61.38                     0.1657        -178.575         0.985986         91.4203         0.985899          91.429         0.165754        -178.501
61.39                   0.165877        -178.619         0.985956         91.3759          0.98587         91.3847         0.165931        -178.545
61.4                    0.166055        -178.664         0.985927         91.3314         0.985841         91.3404         0.166108         -178.59
61.41                   0.166232        -178.708         0.985898          91.287         0.985811         91.2961         0.166285        -178.634
61.42                   0.166409        -178.753         0.985868         91.2426         0.985782         91.2518         0.166462        -178.679
61.43                   0.166586        -178.797         0.985839         91.1982         0.985753         91.2076         0.166639        -178.723
61.44                   0.166763        -178.842          0.98581         91.1537         0.985723         91.1633         0.166816        -178.768
61.45                    0.16694        -178.886          0.98578         91.1093         0.985694          91.119         0.166993        -178.812
61.46                   0.167116        -178.931         0.985751         91.0649         0.985664         91.0748          0.16717        -178.857
61.47                   0.167293        -178.975         0.985722         91.0205         0.985635         91.0305         0.167346        -178.901
61.48                    0.16747         -179.02         0.985692         90.9761         0.985606         90.9862         0.167523        -178.946
61.49                   0.167647        -179.064         0.985663         90.9317         0.985576          90.942         0.167699         -178.99
61.5                    0.167823        -179.109         0.985633         90.8873         0.985547         90.8977         0.167876        -179.035
61.51                      0.168        -179.153         0.985604         90.8429         0.985517         90.8535         0.168052        -179.079
61.52                   0.168176        -179.197         0.985574         90.7985         0.985488         90.8092         0.168229        -179.124
61.53                   0.168353        -179.242         0.985545         90.7541         0.985458          90.765         0.168405        -179.168
61.54                   0.168529        -179.286         0.985516         90.7097         0.985429         90.7207         0.168581        -179.213
61.55                   0.168705        -179.331         0.985486         90.6654         0.985399         90.6765         0.168757        -179.257
61.56                   0.168882        -179.375         0.985457          90.621          0.98537         90.6322         0.168934        -179.302
61.57                   0.169058         -179.42         0.985427         90.5766          0.98534          90.588          0.16911        -179.346
61.58                   0.169234        -179.464         0.985398         90.5322         0.985311         90.5438         0.169286         -179.39
61.59                    0.16941        -179.509         0.985368         90.4879         0.985281         90.4995         0.169462        -179.435
61.6                    0.169586        -179.553         0.985338         90.4435         0.985251         90.4553         0.169638        -179.479
61.61                   0.169762        -179.598         0.985309         90.3992         0.985222         90.4111         0.169813        -179.524
61.62                   0.169938        -179.642         0.985279         90.3548         0.985192         90.3669         0.169989        -179.568
61.63                   0.170114        -179.687          0.98525         90.3104         0.985163         90.3227         0.170165        -179.613
61.64                    0.17029        -179.731          0.98522         90.2661         0.985133         90.2784         0.170341        -179.657
61.65                   0.170465        -179.776         0.985191         90.2217         0.985103         90.2342         0.170516        -179.702
61.66                   0.170641         -179.82         0.985161         90.1774         0.985074           90.19         0.170692        -179.746
61.67                   0.170817        -179.864         0.985131         90.1331         0.985044         90.1458         0.170867        -179.791
61.68                   0.170992        -179.909         0.985102         90.0887         0.985014         90.1016         0.171043        -179.835
61.69                   0.171168        -179.953         0.985072         90.0444         0.984984         90.0574         0.171218         -179.88
61.7                    0.171343        -179.998         0.985043              90         0.984955         90.0132         0.171393        -179.924
61.71                   0.171519         179.958         0.985013         89.9557         0.984925          89.969         0.171569        -179.968
61.72                   0.171694         179.913         0.984983         89.9114         0.984895         89.9248         0.171744         179.987
61.73                   0.171869         179.869         0.984953         89.8671         0.984865         89.8806         0.171919         179.943
61.74                   0.172044         179.824         0.984924         89.8228         0.984835         89.8365         0.172094         179.898
61.75                    0.17222          179.78         0.984894         89.7784         0.984806         89.7923         0.172269         179.854
61.76                   0.172395         179.735         0.984864         89.7341         0.984776         89.7481         0.172444         179.809
61.77                    0.17257         179.691         0.984835         89.6898         0.984746         89.7039         0.172619         179.765
61.78                   0.172745         179.646         0.984805         89.6455         0.984716         89.6598         0.172794          179.72
61.79                    0.17292         179.602         0.984775         89.6012         0.984686         89.6156         0.172968         179.676
61.8                    0.173094         179.557         0.984745         89.5569         0.984656         89.5714         0.173143         179.631
61.81                   0.173269         179.513         0.984715         89.5126         0.984626         89.5272         0.173318         179.587
61.82                   0.173444         179.469         0.984686         89.4683         0.984596         89.4831         0.173492         179.543
61.83                   0.173619         179.424         0.984656          89.424         0.984566         89.4389         0.173667         179.498
61.84                   0.173793          179.38         0.984626         89.3797         0.984536         89.3948         0.173841         179.454
61.85                   0.173968         179.335         0.984596         89.3355         0.984506         89.3506         0.174016         179.409
61.86                   0.174142         179.291         0.984566         89.2912         0.984476         89.3065          0.17419         179.365
61.87                   0.174317         179.246         0.984536         89.2469         0.984446         89.2623         0.174364          179.32
61.88                   0.174491         179.202         0.984506         89.2026         0.984416         89.2182         0.174539         179.276
61.89                   0.174666         179.157         0.984477         89.1583         0.984386          89.174         0.174713         179.232
61.9                     0.17484         179.113         0.984447         89.1141         0.984356         89.1299         0.174887         179.187
61.91                   0.175014         179.068         0.984417         89.0698         0.984326         89.0857         0.175061         179.143
61.92                   0.175188         179.024         0.984387         89.0256         0.984296         89.0416         0.175235         179.098
61.93                   0.175362          178.98         0.984357         88.9813         0.984266         88.9975         0.175409         179.054
61.94                   0.175536         178.935         0.984327          88.937         0.984236         88.9533         0.175582          179.01
61.95                    0.17571         178.891         0.984297         88.8928         0.984206         88.9092         0.175756         178.965
61.96                   0.175884         178.846         0.984267         88.8485         0.984175         88.8651          0.17593         178.921