! TOUCHSTONE file generated by CST MICROWAVE STUDIO
! Date and time: Sun Mar  3 12:09:22 2024
! Project name: material_angular.cst
! Parameters = {d=8.5; Yi=5; iiii=5; exis2=5; exis=5; X=5; Z=5; Y=2}
! Header version: 2018
! Port assignment regex: !\s*Touchstone port\s*([0-9]+)\s*=\s*(CST MWS port|CST DS port)\s*([0-9]+|Zmin|Zmax)\s*\(\"(.*)\"\)(\s*mode\s*([0-9]+))?.*
! Touchstone port assignment:
! Touchstone port 1 = CST MWS port 1 ("")
! Touchstone port 2 = CST MWS port 2 ("")
# GHz S MA R 376.7
60                       0.14073         173.121          0.99007          83.174         0.989782         83.1772         0.140725         173.216
60.01                   0.140913         173.074         0.990041         83.1269         0.989757         83.1299         0.140908          173.17
60.02                   0.141097         173.027         0.990013         83.0798         0.989732         83.0826         0.141091         173.123
60.03                   0.141281         172.979         0.989984         83.0326         0.989708         83.0353         0.141275         173.076
60.04                   0.141464         172.932         0.989955         82.9855         0.989683          82.988         0.141458          173.03
60.05                   0.141648         172.885         0.989926         82.9384         0.989658         82.9407         0.141641         172.983
60.06                   0.141831         172.837         0.989897         82.8913         0.989633         82.8935         0.141824         172.936
60.07                   0.142015          172.79         0.989869         82.8442         0.989609         82.8462         0.142007         172.889
60.08                   0.142198         172.743          0.98984          82.797         0.989584         82.7989          0.14219         172.843
60.09                   0.142382         172.695         0.989811         82.7499         0.989559         82.7517         0.142373         172.796
60.1                    0.142565         172.648         0.989782         82.7028         0.989534         82.7044         0.142556         172.749
60.11                   0.142748         172.601         0.989753         82.6557         0.989509         82.6571         0.142739         172.703
60.12                   0.142931         172.554         0.989725         82.6086         0.989484         82.6099         0.142922         172.656
60.13                   0.143115         172.506         0.989696         82.5615         0.989459         82.5626         0.143104         172.609
60.14                   0.143298         172.459         0.989667         82.5144         0.989434         82.5154         0.143287         172.563
60.15                   0.143481         172.412         0.989638         82.4673         0.989409         82.4682          0.14347         172.516
60.16                   0.143664         172.364          0.98961         82.4202         0.989384         82.4209         0.143653         172.469
60.17                   0.143847         172.317         0.989581         82.3731         0.989359         82.3737         0.143835         172.422
60.18                    0.14403          172.27         0.989552          82.326         0.989333         82.3265         0.144018         172.376
60.19                   0.144213         172.222         0.989523         82.2789         0.989308         82.2792           0.1442         172.329
60.2                    0.144396         172.175         0.989495         82.2318         0.989283          82.232         0.144383         172.282
60.21                   0.144578         172.128         0.989466         82.1848         0.989258         82.1848         0.144565         172.235
60.22                   0.144761         172.081         0.989437         82.1377         0.989232         82.1376         0.144748         172.189
60.23                   0.144944         172.033         0.989408         82.0906         0.989207         82.0904          0.14493         172.142
60.24                   0.145127         171.986          0.98938         82.0435         0.989182         82.0432         0.145113         172.095
60.25                   0.145309         171.939         0.989351         81.9964         0.989156          81.996         0.145295         172.049
60.26                   0.145492         171.891         0.989322         81.9494         0.989131         81.9488         0.145477         172.002
60.27                   0.145674         171.844         0.989294         81.9023         0.989105         81.9017          0.14566         171.955
60.28                   0.145857         171.797         0.989265         81.8552          0.98908         81.8545         0.145842         171.908
60.29                   0.146039          171.75         0.989236         81.8081         0.989054         81.8073         0.146024         171.862
60.3                    0.146222         171.702         0.989207         81.7611         0.989029         81.7601         0.146206         171.815
60.31                   0.146404         171.655         0.989179          81.714         0.989003          81.713         0.146388         171.768
60.32                   0.146586         171.608          0.98915         81.6669         0.988978         81.6658          0.14657         171.721
60.33                   0.146769         171.561         0.989121         81.6199         0.988952         81.6186         0.146752         171.674
60.34                   0.146951         171.513         0.989093         81.5728         0.988926         81.5715         0.146934         171.628
60.35                   0.147133         171.466         0.989064         81.5258         0.988901         81.5243         0.147116         171.581
60.36                   0.147315         171.419         0.989035         81.4787         0.988875         81.4772         0.147298         171.534
60.37                   0.147497         171.372         0.989007         81.4317         0.988849           81.43          0.14748         171.487
60.38                   0.147679         171.324         0.988978         81.3846         0.988823         81.3829         0.147662         171.441
60.39                   0.147861         171.277         0.988949         81.3376         0.988798         81.3358         0.147844         171.394
60.4                    0.148043          171.23         0.988921         81.2905         0.988772         81.2887         0.148025         171.347
60.41                   0.148225         171.183         0.988892         81.2435         0.988746         81.2415         0.148207           171.3
60.42                   0.148407         171.136         0.988863         81.1964          0.98872         81.1944         0.148389         171.254
60.43                   0.148589         171.088         0.988835         81.1494         0.988694         81.1473          0.14857         171.207
60.44                   0.148771         171.041         0.988806         81.1024         0.988668         81.1002         0.148752          171.16
60.45                   0.148952         170.994         0.988777         81.0553         0.988642         81.0531         0.148933         171.113
60.46                   0.149134         170.947         0.988748         81.0083         0.988616          81.006         0.149115         171.066
60.47                   0.149315           170.9          0.98872         80.9613          0.98859         80.9589         0.149296          171.02
60.48                   0.149497         170.852         0.988691         80.9142         0.988564         80.9118         0.149478         170.973
60.49                   0.149679         170.805         0.988662         80.8672         0.988538         80.8647         0.149659         170.926
60.5                     0.14986         170.758         0.988634         80.8202         0.988511         80.8176         0.149841         170.879
60.51                   0.150041         170.711         0.988605         80.7732         0.988485         80.7705         0.150022         170.832
60.52                   0.150223         170.664         0.988576         80.7262         0.988459         80.7234         0.150203         170.786
60.53                   0.150404         170.616         0.988548         80.6791         0.988433         80.6764         0.150384         170.739
60.54                   0.150585         170.569         0.988519         80.6321         0.988406         80.6293         0.150565         170.692
60.55                   0.150766         170.522          0.98849         80.5851          0.98838         80.5822         0.150747         170.645
60.56                   0.150948         170.475         0.988462         80.5381         0.988354         80.5351         0.150928         170.598
60.57                   0.151129         170.428         0.988433         80.4911         0.988327         80.4881         0.151109         170.552
60.58                    0.15131          170.38         0.988404         80.4441         0.988301          80.441          0.15129         170.505
60.59                   0.151491         170.333         0.988376         80.3971         0.988275          80.394         0.151471         170.458
60.6                    0.151672         170.286         0.988347         80.3501         0.988248         80.3469         0.151651         170.411
60.61                   0.151853         170.239         0.988318         80.3031         0.988222         80.2999         0.151832         170.364
60.62                   0.152034         170.192          0.98829         80.2561         0.988195         80.2528         0.152013         170.317
60.63                   0.152214         170.145         0.988261         80.2091         0.988169         80.2058         0.152194         170.271
60.64                   0.152395         170.097         0.988232         80.1621         0.988142         80.1588         0.152375         170.224
60.65                   0.152576          170.05         0.988204         80.1151         0.988115         80.1117         0.152555         170.177
60.66                   0.152757         170.003         0.988175         80.0681         0.988089         80.0647         0.152736          170.13
60.67                   0.152937         169.956         0.988146         80.0212         0.988062         80.0177         0.152916         170.083
60.68                   0.153118         169.909         0.988118         79.9742         0.988035         79.9707         0.153097         170.036
60.69                   0.153298         169.862         0.988089         79.9272         0.988009         79.9237         0.153277          169.99
60.7                    0.153479         169.815          0.98806         79.8802         0.987982         79.8767         0.153458         169.943
60.71                   0.153659         169.768         0.988031         79.8332         0.987955         79.8297         0.153638         169.896
60.72                    0.15384          169.72         0.988003         79.7863         0.987928         79.7826         0.153819         169.849
60.73                    0.15402         169.673         0.987974         79.7393         0.987901         79.7356         0.153999         169.802
60.74                     0.1542         169.626         0.987945         79.6923         0.987875         79.6887         0.154179         169.755
60.75                    0.15438         169.579         0.987917         79.6454         0.987848         79.6417          0.15436         169.709
60.76                   0.154561         169.532         0.987888         79.5984         0.987821         79.5947          0.15454         169.662
60.77                   0.154741         169.485         0.987859         79.5514         0.987794         79.5477          0.15472         169.615
60.78                   0.154921         169.438          0.98783         79.5045         0.987767         79.5007           0.1549         169.568
60.79                   0.155101         169.391         0.987802         79.4575          0.98774         79.4537          0.15508         169.521
60.8                    0.155281         169.343         0.987773         79.4106         0.987713         79.4068          0.15526         169.474
60.81                   0.155461         169.296         0.987744         79.3636         0.987686         79.3598          0.15544         169.428
60.82                    0.15564         169.249         0.987716         79.3167         0.987659         79.3128          0.15562         169.381
60.83                    0.15582         169.202         0.987687         79.2697         0.987631         79.2659           0.1558         169.334
60.84                      0.156         169.155         0.987658         79.2228         0.987604         79.2189          0.15598         169.287
60.85                    0.15618         169.108         0.987629         79.1758         0.987577         79.1719         0.156159          169.24
60.86                   0.156359         169.061         0.987601         79.1289          0.98755          79.125         0.156339         169.193
60.87                   0.156539         169.014         0.987572          79.082         0.987523          79.078         0.156519         169.147
60.88                   0.156719         168.967         0.987543          79.035         0.987495         79.0311         0.156698           169.1
60.89                   0.156898          168.92         0.987514         78.9881         0.987468         78.9841         0.156878         169.053
60.9                    0.157078         168.873         0.987485         78.9412         0.987441         78.9372         0.157057         169.006
60.91                   0.157257         168.826         0.987457         78.8942         0.987413         78.8903         0.157237         168.959
60.92                   0.157436         168.779         0.987428         78.8473         0.987386         78.8433         0.157416         168.912
60.93                   0.157616         168.732         0.987399         78.8004         0.987359         78.7964         0.157596         168.866
60.94                   0.157795         168.684          0.98737         78.7535         0.987331         78.7495         0.157775         168.819
60.95                   0.157974         168.637         0.987341         78.7066         0.987304         78.7026         0.157954         168.772
60.96                   0.158153          168.59         0.987313         78.6596         0.987276         78.6556         0.158134         168.725
60.97                   0.158332         168.543         0.987284         78.6127         0.987249         78.6087         0.158313         168.678
60.98                   0.158511         168.496         0.987255         78.5658         0.987221         78.5618         0.158492         168.631
60.99                    0.15869         168.449         0.987226         78.5189         0.987193         78.5149         0.158671         168.584
61                      0.158869         168.402         0.987197          78.472         0.987166          78.468          0.15885         168.538
61.01                   0.159048         168.355         0.987169         78.4251         0.987138         78.4211         0.159029         168.491
61.02                   0.159227         168.308          0.98714         78.3782         0.987111         78.3742         0.159208         168.444
61.03                   0.159406         168.261         0.987111         78.3313         0.987083         78.3273         0.159387         168.397
61.04                   0.159585         168.214         0.987082         78.2844         0.987055         78.2804         0.159566          168.35
61.05                   0.159763         168.167         0.987053         78.2375         0.987027         78.2335         0.159745         168.303
61.06                   0.159942          168.12         0.987024         78.1906            0.987         78.1866         0.159923         168.257
61.07                   0.160121         168.073         0.986995         78.1437         0.986972         78.1398         0.160102          168.21
61.08                   0.160299         168.026         0.986966         78.0968         0.986944         78.0929         0.160281         168.163
61.09                   0.160478         167.979         0.986938         78.0499         0.986916          78.046         0.160459         168.116
61.1                    0.160656         167.932         0.986909         78.0031         0.986888         77.9991         0.160638         168.069
61.11                   0.160834         167.885          0.98688         77.9562          0.98686         77.9523         0.160817         168.022
61.12                   0.161013         167.838         0.986851         77.9093         0.986832         77.9054         0.160995         167.975
61.13                   0.161191         167.791         0.986822         77.8624         0.986804         77.8585         0.161173         167.929
61.14                   0.161369         167.744         0.986793         77.8155         0.986776         77.8117         0.161352         167.882
61.15                   0.161547         167.697         0.986764         77.7687         0.986748         77.7648          0.16153         167.835
61.16                   0.161725          167.65         0.986735         77.7218          0.98672          77.718         0.161708         167.788
61.17                   0.161904         167.603         0.986706         77.6749         0.986692         77.6711         0.161887         167.741
61.18                   0.162082         167.556         0.986677         77.6281         0.986664         77.6243         0.162065         167.694
61.19                    0.16226         167.509         0.986648         77.5812         0.986636         77.5774         0.162243         167.648
61.2                    0.162437         167.462         0.986619         77.5344         0.986608         77.5306         0.162421         167.601
61.21                   0.162615         167.415          0.98659         77.4875         0.986579         77.4837         0.162599         167.554
61.22                   0.162793         167.369         0.986561         77.4406         0.986551         77.4369         0.162777         167.507
61.23                   0.162971         167.322         0.986532         77.3938         0.986523         77.3901         0.162955          167.46
61.24                   0.163148         167.275         0.986503         77.3469         0.986495         77.3432         0.163133         167.413
61.25                   0.163326         167.228         0.986474         77.3001         0.986466         77.2964         0.163311         167.367
61.26                   0.163504         167.181         0.986445         77.2533         0.986438         77.2496         0.163488          167.32
61.27                   0.163681         167.134         0.986416         77.2064          0.98641         77.2028         0.163666         167.273
61.28                   0.163859         167.087         0.986387         77.1596         0.986381         77.1559         0.163844         167.226
61.29                   0.164036          167.04         0.986358         77.1127         0.986353         77.1091         0.164021         167.179
61.3                    0.164213         166.993         0.986329         77.0659         0.986325         77.0623         0.164199         167.132
61.31                   0.164391         166.946           0.9863         77.0191         0.986296         77.0155         0.164376         167.085
61.32                   0.164568         166.899         0.986271         76.9722         0.986268         76.9687         0.164554         167.039
61.33                   0.164745         166.852         0.986242         76.9254         0.986239         76.9219         0.164731         166.992
61.34                   0.164922         166.805         0.986212         76.8786          0.98621         76.8751         0.164909         166.945
61.35                   0.165099         166.758         0.986183         76.8318         0.986182         76.8283         0.165086         166.898
61.36                   0.165276         166.712         0.986154         76.7849         0.986153         76.7815         0.165263         166.851
61.37                   0.165453         166.665         0.986125         76.7381         0.986125         76.7347          0.16544         166.804
61.38                    0.16563         166.618         0.986096         76.6913         0.986096         76.6879         0.165617         166.758
61.39                   0.165807         166.571         0.986067         76.6445         0.986067         76.6412         0.165795         166.711
61.4                    0.165984         166.524         0.986038         76.5977         0.986039         76.5944         0.165972         166.664
61.41                   0.166161         166.477         0.986008         76.5509          0.98601         76.5476         0.166149         166.617
61.42                   0.166338          166.43         0.985979         76.5041         0.985981         76.5008         0.166325          166.57
61.43                   0.166514         166.383          0.98595         76.4573         0.985952          76.454         0.166502         166.523
61.44                   0.166691         166.337         0.985921         76.4105         0.985924         76.4073         0.166679         166.477
61.45                   0.166867          166.29         0.985892         76.3637         0.985895         76.3605         0.166856          166.43
61.46                   0.167044         166.243         0.985862         76.3169         0.985866         76.3137         0.167033         166.383
61.47                    0.16722         166.196         0.985833         76.2701         0.985837          76.267         0.167209         166.336
61.48                   0.167397         166.149         0.985804         76.2233         0.985808         76.2202         0.167386         166.289
61.49                   0.167573         166.102         0.985775         76.1765         0.985779         76.1735         0.167562         166.243
61.5                    0.167749         166.055         0.985745         76.1297          0.98575         76.1267         0.167739         166.196
61.51                   0.167926         166.009         0.985716         76.0829         0.985721           76.08         0.167915         166.149
61.52                   0.168102         165.962         0.985687         76.0361         0.985692         76.0332         0.168092         166.102
61.53                   0.168278         165.915         0.985657         75.9894         0.985663         75.9865         0.168268         166.055
61.54                   0.168454         165.868         0.985628         75.9426         0.985634         75.9397         0.168444         166.008
61.55                    0.16863         165.821         0.985599         75.8958         0.985605          75.893         0.168621         165.962
61.56                   0.168806         165.774         0.985569          75.849         0.985576         75.8462         0.168797         165.915
61.57                   0.168982         165.728          0.98554         75.8023         0.985547         75.7995         0.168973         165.868
61.58                   0.169157         165.681         0.985511         75.7555         0.985518         75.7528         0.169149         165.821
61.59                   0.169333         165.634         0.985481         75.7087         0.985488         75.7061         0.169325         165.774
61.6                    0.169509         165.587         0.985452          75.662         0.985459         75.6593         0.169501         165.728
61.61                   0.169685          165.54         0.985422         75.6152          0.98543         75.6126         0.169677         165.681
61.62                    0.16986         165.493         0.985393         75.5685         0.985401         75.5659         0.169853         165.634
61.63                   0.170036         165.447         0.985363         75.5217         0.985371         75.5192         0.170029         165.587
61.64                   0.170211           165.4         0.985334          75.475         0.985342         75.4724         0.170204          165.54
61.65                   0.170387         165.353         0.985305         75.4282         0.985313         75.4257          0.17038         165.494
61.66                   0.170562         165.306         0.985275         75.3815         0.985283          75.379         0.170556         165.447
61.67                   0.170737          165.26         0.985246         75.3347         0.985254         75.3323         0.170731           165.4
61.68                   0.170913         165.213         0.985216          75.288         0.985225         75.2856         0.170907         165.353
61.69                   0.171088         165.166         0.985187         75.2412         0.985195         75.2389         0.171082         165.306
61.7                    0.171263         165.119         0.985157         75.1945         0.985166         75.1922         0.171258          165.26
61.71                   0.171438         165.072         0.985128         75.1478         0.985136         75.1455         0.171433         165.213
61.72                   0.171613         165.026         0.985098          75.101         0.985107         75.0988         0.171608         165.166
61.73                   0.171788         164.979         0.985068         75.0543         0.985077         75.0521         0.171784         165.119
61.74                   0.171963         164.932         0.985039         75.0076         0.985048         75.0054         0.171959         165.072
61.75                   0.172138         164.885         0.985009         74.9608         0.985018         74.9588         0.172134         165.026
61.76                   0.172313         164.839          0.98498         74.9141         0.984988         74.9121         0.172309         164.979
61.77                   0.172487         164.792          0.98495         74.8674         0.984959         74.8654         0.172484         164.932
61.78                   0.172662         164.745          0.98492         74.8207         0.984929         74.8187         0.172659         164.885
61.79                   0.172837         164.698         0.984891          74.774         0.984899          74.772         0.172834         164.838
61.8                    0.173011         164.652         0.984861         74.7273          0.98487         74.7254         0.173009         164.792
61.81                   0.173186         164.605         0.984831         74.6805          0.98484         74.6787         0.173183         164.745
61.82                    0.17336         164.558         0.984802         74.6338          0.98481          74.632         0.173358         164.698
61.83                   0.173535         164.511         0.984772         74.5871          0.98478         74.5854         0.173533         164.651
61.84                   0.173709         164.465         0.984742         74.5404         0.984751         74.5387         0.173707         164.605
61.85                   0.173883         164.418         0.984712         74.4937         0.984721          74.492         0.173882         164.558
61.86                   0.174058         164.371         0.984683          74.447         0.984691         74.4454         0.174057         164.511
61.87                   0.174232         164.325         0.984653         74.4003         0.984661         74.3987         0.174231         164.464
61.88                   0.174406         164.278         0.984623         74.3536         0.984631         74.3521         0.174405         164.417
61.89                    0.17458         164.231         0.984593         74.3069         0.984601         74.3054          0.17458         164.371
61.9                    0.174754         164.184         0.984564         74.2603         0.984571         74.2588         0.174754         164.324
61.91                   0.174928         164.138         0.984534         74.2136         0.984541         74.2121         0.174928         164.277
61.92                   0.175102         164.091         0.984504         74.1669         0.984511         74.1655         0.175102          164.23
61.93                   0.175276         164.044         0.984474         74.1202         0.984481         74.1188         0.175276         164.184
61.94                    0.17545         163.998         0.984444         74.0735         0.984451         74.0722         0.175451         164.137
61.95                   0.175623         163.951         0.984414         74.0269         0.984421         74.0256         0.175624          164.09
61.96                   0.175797         163.904         0.984384         73.9802         0.984391         73.9789         0.175798         164.043