! TOUCHSTONE file generated by CST MICROWAVE STUDIO
! Date and time: Tue Feb 27 23:06:35 2024
! Project name: material_angular.cst
! Parameters = {Yi=5; iiii=5; exis2=5; exis=5; X=5; Z=5; Y=2}
! Header version: 2018
! Port assignment regex: !\s*Touchstone port\s*([0-9]+)\s*=\s*(CST MWS port|CST DS port)\s*([0-9]+|Zmin|Zmax)\s*\(\"(.*)\"\)(\s*mode\s*([0-9]+))?.*
! Touchstone port assignment:
! Touchstone port 1 = CST MWS port 1 ("")
! Touchstone port 2 = CST MWS port 2 ("")
# GHz S MA R 376.7
60                     0.0986709        -167.844         0.994955           157.4         0.995593         157.365        0.0986066        -57.0255
60.01                  0.0991396         -168.08          0.99497         157.325         0.995519         157.303        0.0991288        -56.9516
60.02                  0.0995885        -168.304         0.994968         157.255         0.995448         157.243        0.0996212        -56.8812
60.03                   0.100019        -168.518         0.994954         157.189         0.995379         157.185         0.100087        -56.8143
60.04                   0.100433        -168.722         0.994932         157.126         0.995313         157.128         0.100529        -56.7508
60.05                   0.100832        -168.917         0.994905         157.066         0.995249         157.073         0.100949        -56.6906
60.06                   0.101216        -169.103         0.994875         157.009         0.995188         157.019          0.10135        -56.6336
60.07                   0.101587        -169.283         0.994842         156.953         0.995129         156.966         0.101733        -56.5798
60.08                   0.101946        -169.455         0.994808           156.9         0.995072         156.914           0.1021        -56.5289
60.09                   0.102293        -169.621         0.994773         156.848         0.995017         156.863         0.102453        -56.4808
60.1                    0.102629        -169.781         0.994739         156.797         0.994964         156.813         0.102793        -56.4354
60.11                   0.102956        -169.936         0.994704         156.747         0.994913         156.764          0.10312        -56.3925
60.12                   0.103273        -170.086          0.99467         156.699         0.994864         156.716         0.103436        -56.3521
60.13                   0.103582        -170.231         0.994636         156.651         0.994816         156.668         0.103743         -56.314
60.14                   0.103883        -170.372         0.994603         156.604          0.99477         156.621         0.104039        -56.2781
60.15                   0.104175        -170.508         0.994571         156.558         0.994726         156.574         0.104328        -56.2443
60.16                   0.104461        -170.641         0.994539         156.512         0.994682         156.528         0.104608        -56.2125
60.17                    0.10474        -170.771         0.994508         156.467         0.994641         156.482          0.10488        -56.1825
60.18                   0.105013        -170.897         0.994477         156.423           0.9946         156.437         0.105146        -56.1544
60.19                   0.105279         -171.02         0.994447         156.379         0.994561         156.392         0.105406        -56.1279
60.2                     0.10554         -171.14         0.994418         156.335         0.994523         156.348         0.105659        -56.1031
60.21                   0.105796        -171.257          0.99439         156.292         0.994485         156.304         0.105907        -56.0798
60.22                   0.106046        -171.372         0.994362          156.25         0.994449          156.26          0.10615         -56.058
60.23                   0.106292        -171.484         0.994335         156.207         0.994414         156.217         0.106387        -56.0375
60.24                   0.106533        -171.594         0.994309         156.165          0.99438         156.174         0.106621        -56.0184
60.25                    0.10677        -171.702         0.994283         156.123         0.994346         156.131          0.10685        -56.0006
60.26                   0.107003        -171.808         0.994257         156.082         0.994314         156.089         0.107075         -55.984
60.27                   0.107233        -171.912         0.994232          156.04         0.994282         156.047         0.107296        -55.9685
60.28                   0.107458        -172.014         0.994207         155.999         0.994251         156.005         0.107514        -55.9542
60.29                    0.10768        -172.114         0.994183         155.958         0.994221         155.963         0.107728        -55.9409
60.3                    0.107899        -172.213          0.99416         155.917         0.994191         155.922         0.107939        -55.9286
60.31                   0.108114         -172.31         0.994136         155.877         0.994162          155.88         0.108148        -55.9173
60.32                   0.108327        -172.405         0.994114         155.837         0.994134         155.839         0.108353        -55.9069
60.33                   0.108537        -172.499         0.994091         155.796         0.994106         155.798         0.108556        -55.8974
60.34                   0.108744        -172.592         0.994069         155.756         0.994078         155.758         0.108756        -55.8888
60.35                   0.108948        -172.683         0.994047         155.716         0.994052         155.717         0.108954         -55.881
60.36                    0.10915        -172.773         0.994025         155.677         0.994025         155.677          0.10915         -55.874
60.37                    0.10935        -172.862         0.994004         155.637         0.993999         155.636         0.109344        -55.8678
60.38                   0.109547        -172.949         0.993983         155.597         0.993974         155.596         0.109535        -55.8623
60.39                   0.109742        -173.036         0.993962         155.558         0.993949         155.556         0.109725        -55.8574
60.4                    0.109935        -173.122         0.993942         155.519         0.993925         155.516         0.109913        -55.8533
60.41                   0.110126        -173.206         0.993921         155.479           0.9939         155.477         0.110099        -55.8498
60.42                   0.110315         -173.29         0.993901          155.44         0.993877         155.437         0.110283         -55.847
60.43                   0.110503        -173.372         0.993881         155.401         0.993853         155.397         0.110466        -55.8447
60.44                   0.110689        -173.454         0.993861         155.362          0.99383         155.358         0.110647        -55.8431
60.45                   0.110872        -173.535         0.993842         155.323         0.993807         155.319         0.110827         -55.842
60.46                   0.111055        -173.615         0.993822         155.284         0.993785          155.28         0.111005        -55.8415
60.47                   0.111236        -173.694         0.993803         155.246         0.993763         155.241         0.111182        -55.8415
60.48                   0.111415        -173.773         0.993784         155.207         0.993741         155.202         0.111358         -55.842
60.49                   0.111593         -173.85         0.993765         155.168         0.993719         155.163         0.111532         -55.843
60.5                     0.11177        -173.927         0.993746          155.13         0.993698         155.124         0.111706        -55.8445
60.51                   0.111945        -174.003         0.993727         155.091         0.993677         155.085         0.111878        -55.8464
60.52                   0.112119        -174.079         0.993709         155.053         0.993656         155.046          0.11205        -55.8488
60.53                   0.112292        -174.154          0.99369         155.015         0.993635         155.008          0.11222        -55.8517
60.54                   0.112463        -174.228         0.993672         154.976         0.993615         154.969         0.112389         -55.855
60.55                   0.112634        -174.302         0.993653         154.938         0.993595         154.931         0.112557        -55.8586
60.56                   0.112803        -174.375         0.993635           154.9         0.993575         154.892         0.112725        -55.8627
60.57                   0.112972        -174.448         0.993617         154.862         0.993555         154.854         0.112891        -55.8672
60.58                   0.113139         -174.52         0.993599         154.824         0.993535         154.816         0.113057        -55.8721
60.59                   0.113306        -174.591         0.993581         154.786         0.993515         154.778         0.113222        -55.8773
60.6                    0.113471        -174.662         0.993563         154.748         0.993496          154.74         0.113386        -55.8829
60.61                   0.113636        -174.733         0.993545          154.71         0.993477         154.702         0.113549        -55.8888
60.62                     0.1138        -174.803         0.993527         154.672         0.993458         154.664         0.113712        -55.8951
60.63                   0.113963        -174.872         0.993509         154.634         0.993439         154.626         0.113874        -55.9017
60.64                   0.114125        -174.941         0.993491         154.596          0.99342         154.588         0.114035        -55.9087
60.65                   0.114286         -175.01         0.993473         154.558         0.993402          154.55         0.114196        -55.9159
60.66                   0.114447        -175.078         0.993455         154.521         0.993383         154.512         0.114356        -55.9235
60.67                   0.114607        -175.146         0.993438         154.483         0.993365         154.474         0.114516        -55.9313
60.68                   0.114766        -175.213          0.99342         154.445         0.993346         154.436         0.114675        -55.9395
60.69                   0.114925         -175.28         0.993402         154.407         0.993328         154.399         0.114833        -55.9479
60.7                    0.115082        -175.346         0.993385          154.37          0.99331         154.361         0.114991        -55.9566
60.71                    0.11524        -175.413         0.993367         154.332         0.993292         154.324         0.115148        -55.9656
60.72                   0.115396        -175.478         0.993349         154.295         0.993274         154.286         0.115305        -55.9749
60.73                   0.115553        -175.544         0.993332         154.257         0.993256         154.249         0.115461        -55.9844
60.74                   0.115708        -175.609         0.993314          154.22         0.993239         154.211         0.115617        -55.9942
60.75                   0.115863        -175.674         0.993296         154.182         0.993221         154.174         0.115772        -56.0043
60.76                   0.116018        -175.738         0.993279         154.145         0.993203         154.136         0.115927        -56.0145
60.77                   0.116172        -175.802         0.993261         154.107         0.993186         154.099         0.116082        -56.0251
60.78                   0.116325        -175.866         0.993243          154.07         0.993168         154.061         0.116236        -56.0358
60.79                   0.116478        -175.929         0.993226         154.032         0.993151         154.024          0.11639        -56.0468
60.8                    0.116631        -175.992         0.993208         153.995         0.993134         153.987         0.116543         -56.058
60.81                   0.116783        -176.055         0.993191         153.958         0.993116          153.95         0.116696        -56.0695
60.82                   0.116934        -176.117         0.993173          153.92         0.993099         153.912         0.116849        -56.0811
60.83                   0.117086         -176.18         0.993155         153.883         0.993082         153.875         0.117001         -56.093
60.84                   0.117236        -176.242         0.993138         153.846         0.993065         153.838         0.117153        -56.1051
60.85                   0.117387        -176.303          0.99312         153.809         0.993048         153.801         0.117305        -56.1174
60.86                   0.117537        -176.365         0.993102         153.771         0.993031         153.764         0.117456        -56.1299
60.87                   0.117687        -176.426         0.993084         153.734         0.993014         153.727         0.117607        -56.1426
60.88                   0.117836        -176.487         0.993067         153.697         0.992997          153.69         0.117758        -56.1555
60.89                   0.117985        -176.547         0.993049          153.66          0.99298         153.653         0.117908        -56.1686
60.9                    0.118134        -176.607         0.993031         153.623         0.992963         153.616         0.118058        -56.1819
60.91                   0.118282        -176.668         0.993013         153.585         0.992946         153.579         0.118208        -56.1953
60.92                    0.11843        -176.727         0.992996         153.548         0.992929         153.542         0.118358         -56.209
60.93                   0.118578        -176.787         0.992978         153.511         0.992913         153.505         0.118507        -56.2228
60.94                   0.118725        -176.846          0.99296         153.474         0.992896         153.468         0.118656        -56.2368
60.95                   0.118873        -176.906         0.992942         153.437         0.992879         153.431         0.118805         -56.251
60.96                   0.119019        -176.965         0.992924           153.4         0.992862         153.394         0.118953        -56.2654
60.97                   0.119166        -177.023         0.992906         153.363         0.992846         153.357         0.119102        -56.2799
60.98                   0.119313        -177.082         0.992888         153.326         0.992829          153.32          0.11925        -56.2946
60.99                   0.119459         -177.14          0.99287         153.289         0.992812         153.283         0.119398        -56.3095
61                      0.119605        -177.198         0.992852         153.252         0.992796         153.247         0.119546        -56.3245
61.01                    0.11975        -177.256         0.992834         153.215         0.992779          153.21         0.119693        -56.3397
61.02                   0.119896        -177.314         0.992816         153.178         0.992762         153.173         0.119841         -56.355
61.03                   0.120041        -177.371         0.992798         153.141         0.992746         153.136         0.119988        -56.3705
61.04                   0.120186        -177.429          0.99278         153.104         0.992729           153.1         0.120135        -56.3862
61.05                   0.120331        -177.486         0.992761         153.067         0.992712         153.063         0.120281         -56.402
61.06                   0.120476        -177.543         0.992743         153.031         0.992696         153.026         0.120428         -56.418
61.07                    0.12062        -177.599         0.992725         152.994         0.992679         152.989         0.120575        -56.4341
61.08                   0.120764        -177.656         0.992706         152.957         0.992663         152.953         0.120721        -56.4504
61.09                   0.120908        -177.712         0.992688          152.92         0.992646         152.916         0.120867        -56.4668
61.1                    0.121052        -177.769          0.99267         152.883         0.992629         152.879         0.121013        -56.4833
61.11                   0.121196        -177.825         0.992651         152.846         0.992613         152.843         0.121159           -56.5
61.12                    0.12134         -177.88         0.992633         152.809         0.992596         152.806         0.121304        -56.5169
61.13                   0.121483        -177.936         0.992614         152.773         0.992579          152.77          0.12145        -56.5338
61.14                   0.121627        -177.992         0.992596         152.736         0.992563         152.733         0.121595         -56.551
61.15                    0.12177        -178.047         0.992577         152.699         0.992546         152.696          0.12174        -56.5682
61.16                   0.121913        -178.102         0.992558         152.662         0.992529          152.66         0.121886        -56.5856
61.17                   0.122056        -178.157          0.99254         152.626         0.992513         152.623         0.122031        -56.6031
61.18                   0.122198        -178.212         0.992521         152.589         0.992496         152.587         0.122175        -56.6208
61.19                   0.122341        -178.267         0.992502         152.552         0.992479          152.55          0.12232        -56.6386
61.2                    0.122484        -178.321         0.992483         152.515         0.992463         152.514         0.122465        -56.6565
61.21                   0.122626        -178.376         0.992464         152.479         0.992446         152.477         0.122609        -56.6745
61.22                   0.122768         -178.43         0.992446         152.442         0.992429         152.441         0.122754        -56.6927
61.23                   0.122911        -178.484         0.992427         152.405         0.992413         152.404         0.122898         -56.711
61.24                   0.123053        -178.538         0.992408         152.369         0.992396         152.368         0.123042        -56.7295
61.25                   0.123195        -178.592         0.992389         152.332         0.992379         152.331         0.123186         -56.748
61.26                   0.123337        -178.646         0.992369         152.295         0.992362         152.295          0.12333        -56.7667
61.27                   0.123478        -178.699          0.99235         152.259         0.992346         152.258         0.123474        -56.7855
61.28                    0.12362        -178.753         0.992331         152.222         0.992329         152.222         0.123618        -56.8044
61.29                   0.123762        -178.806         0.992312         152.185         0.992312         152.185         0.123762        -56.8235
61.3                    0.123903        -178.859         0.992293         152.149         0.992295         152.149         0.123906        -56.8426
61.31                   0.124045        -178.912         0.992273         152.112         0.992278         152.113         0.124049        -56.8619
61.32                   0.124186        -178.965         0.992254         152.076         0.992261         152.076         0.124193        -56.8813
61.33                   0.124328        -179.018         0.992235         152.039         0.992244          152.04         0.124336        -56.9008
61.34                   0.124469         -179.07         0.992215         152.002         0.992228         152.003         0.124479        -56.9205
61.35                    0.12461        -179.123         0.992196         151.966         0.992211         151.967         0.124623        -56.9402
61.36                   0.124751        -179.175         0.992176         151.929         0.992194          151.93         0.124766        -56.9601
61.37                   0.124893        -179.227         0.992156         151.893         0.992177         151.894         0.124909        -56.9801
61.38                   0.125034        -179.279         0.992137         151.856          0.99216         151.858         0.125052        -57.0002
61.39                   0.125175        -179.331         0.992117          151.82         0.992143         151.821         0.125195        -57.0204
61.4                    0.125316        -179.383         0.992097         151.783         0.992125         151.785         0.125338        -57.0407
61.41                   0.125457        -179.435         0.992077         151.746         0.992108         151.749         0.125481        -57.0611
61.42                   0.125598        -179.486         0.992057          151.71         0.992091         151.712         0.125624        -57.0817
61.43                   0.125738        -179.538         0.992038         151.673         0.992074         151.676         0.125767        -57.1023
61.44                   0.125879        -179.589         0.992018         151.637         0.992057          151.64          0.12591        -57.1231
61.45                    0.12602        -179.641         0.991998           151.6          0.99204         151.603         0.126053         -57.144
61.46                   0.126161        -179.692         0.991977         151.564         0.992022         151.567         0.126195        -57.1649
61.47                   0.126302        -179.743         0.991957         151.527         0.992005         151.531         0.126338         -57.186
61.48                   0.126442        -179.794         0.991937         151.491         0.991988         151.494         0.126481        -57.2072
61.49                   0.126583        -179.845         0.991917         151.454         0.991971         151.458         0.126623        -57.2285
61.5                    0.126724        -179.895         0.991897         151.418         0.991953         151.422         0.126766          -57.25
61.51                   0.126865        -179.946         0.991876         151.382         0.991936         151.385         0.126909        -57.2715
61.52                   0.127005        -179.996         0.991856         151.345         0.991918         151.349         0.127051        -57.2931
61.53                   0.127146         179.953         0.991835         151.309         0.991901         151.313         0.127194        -57.3149
61.54                   0.127287         179.903         0.991815         151.272         0.991883         151.276         0.127336        -57.3367
61.55                   0.127427         179.853         0.991794         151.236         0.991866          151.24         0.127479        -57.3586
61.56                   0.127568         179.803         0.991774         151.199         0.991848         151.204         0.127621        -57.3807
61.57                   0.127709         179.753         0.991753         151.163         0.991831         151.167         0.127764        -57.4029
61.58                    0.12785         179.703         0.991732         151.126         0.991813         151.131         0.127906        -57.4251
61.59                    0.12799         179.653         0.991711          151.09         0.991796         151.095         0.128049        -57.4475
61.6                    0.128131         179.604         0.991691         151.054         0.991778         151.058         0.128191          -57.47
61.61                   0.128272         179.554          0.99167         151.017          0.99176         151.022         0.128334        -57.4926
61.62                   0.128413         179.505         0.991649         150.981         0.991742         150.986         0.128476        -57.5153
61.63                   0.128554         179.455         0.991628         150.944         0.991725         150.949         0.128619         -57.538
61.64                   0.128695         179.406         0.991607         150.908         0.991707         150.913         0.128762        -57.5609
61.65                   0.128836         179.357         0.991585         150.872         0.991689         150.877         0.128904        -57.5839
61.66                   0.128977         179.308         0.991564         150.835         0.991671          150.84         0.129047         -57.607
61.67                   0.129118         179.259         0.991543         150.799         0.991653         150.804          0.12919        -57.6303
61.68                   0.129259          179.21         0.991522         150.762         0.991635         150.768         0.129332        -57.6536
61.69                     0.1294         179.161           0.9915         150.726         0.991617         150.732         0.129475         -57.677
61.7                    0.129541         179.113         0.991479          150.69         0.991599         150.695         0.129618        -57.7005
61.71                   0.129682         179.064         0.991457         150.653         0.991581         150.659         0.129761        -57.7241
61.72                   0.129824         179.016         0.991436         150.617         0.991563         150.623         0.129904        -57.7479
61.73                   0.129965         178.967         0.991414          150.58         0.991544         150.586         0.130047        -57.7717
61.74                   0.130107         178.919         0.991393         150.544         0.991526          150.55          0.13019        -57.7956
61.75                   0.130248         178.871         0.991371         150.508         0.991508         150.514         0.130333        -57.8197
61.76                    0.13039         178.823         0.991349         150.471         0.991489         150.477         0.130476        -57.8439
61.77                   0.130532         178.775         0.991328         150.435         0.991471         150.441         0.130619        -57.8681
61.78                   0.130674         178.727         0.991306         150.399         0.991453         150.404         0.130763        -57.8925
61.79                   0.130816         178.679         0.991284         150.362         0.991434         150.368         0.130906         -57.917
61.8                    0.130958         178.631         0.991262         150.326         0.991415         150.332          0.13105        -57.9415
61.81                     0.1311         178.584          0.99124         150.289         0.991397         150.295         0.131193        -57.9662
61.82                   0.131242         178.536         0.991218         150.253         0.991378         150.259         0.131337         -57.991
61.83                   0.131385         178.489         0.991196         150.217          0.99136         150.223         0.131481        -58.0159
61.84                   0.131528         178.441         0.991174          150.18         0.991341         150.186         0.131625        -58.0409
61.85                    0.13167         178.394         0.991152         150.144         0.991322          150.15         0.131769        -58.0661
61.86                   0.131813         178.347          0.99113         150.108         0.991303         150.113         0.131913        -58.0913
61.87                   0.131957           178.3         0.991108         150.071         0.991284         150.077         0.132058        -58.1166
61.88                     0.1321         178.253         0.991086         150.035         0.991265          150.04         0.132203        -58.1421
61.89                   0.132244         178.206         0.991064         149.999         0.991246         150.004         0.132347        -58.1677
61.9                    0.132387         178.159         0.991042         149.962         0.991227         149.967         0.132493        -58.1934
61.91                   0.132531         178.113          0.99102         149.926         0.991208         149.931         0.132638        -58.2192
61.92                   0.132676         178.066         0.990998         149.889         0.991188         149.894         0.132783        -58.2451
61.93                    0.13282          178.02         0.990976         149.853         0.991169         149.858         0.132929        -58.2711
61.94                   0.132965         177.973         0.990954         149.817          0.99115         149.821         0.133075        -58.2973
61.95                    0.13311         177.927         0.990933          149.78          0.99113         149.785         0.133221        -58.3236
61.96                   0.133256         177.881         0.990911         149.744         0.991111         149.748         0.133368          -58.35