! TOUCHSTONE file generated by CST MICROWAVE STUDIO
! Date and time: Fri Mar  8 11:09:23 2024
! Project name: material_angular.cst
! Parameters = {d=9; Yi=5; iiii=5; exis2=5; exis=5; X=5; Z=5; Y=2}
! Header version: 2018
! Port assignment regex: !\s*Touchstone port\s*([0-9]+)\s*=\s*(CST MWS port|CST DS port)\s*([0-9]+|Zmin|Zmax)\s*\(\"(.*)\"\)(\s*mode\s*([0-9]+))?.*
! Touchstone port assignment:
! Touchstone port 1 = CST MWS port 1 ("")
! Touchstone port 2 = CST MWS port 2 ("")
# GHz S MA R 376.7
60                      0.140658        -114.831         0.990052         155.245         0.989881         155.254         0.140636        -114.689
60.01                   0.140842        -114.865         0.990022          155.21         0.989852         155.219          0.14082        -114.724
60.02                   0.141025        -114.899         0.989992         155.174         0.989822         155.184         0.141004        -114.759
60.03                   0.141209        -114.934         0.989962         155.139         0.989792         155.149         0.141188        -114.794
60.04                   0.141392        -114.968         0.989932         155.104         0.989762         155.114         0.141371        -114.829
60.05                   0.141575        -115.002         0.989902         155.069         0.989733         155.079         0.141555        -114.863
60.06                   0.141759        -115.037         0.989872         155.034         0.989703         155.044         0.141739        -114.898
60.07                   0.141942        -115.071         0.989843         154.998         0.989673         155.009         0.141923        -114.933
60.08                   0.142125        -115.105         0.989813         154.963         0.989644         154.974         0.142107        -114.968
60.09                   0.142308         -115.14         0.989783         154.928         0.989614         154.939          0.14229        -115.003
60.1                    0.142492        -115.174         0.989753         154.893         0.989584         154.904         0.142474        -115.037
60.11                   0.142675        -115.209         0.989723         154.858         0.989554         154.869         0.142658        -115.072
60.12                   0.142858        -115.243         0.989693         154.822         0.989525         154.834         0.142841        -115.107
60.13                   0.143041        -115.277         0.989663         154.787         0.989495         154.799         0.143025        -115.142
60.14                   0.143224        -115.312         0.989634         154.752         0.989465         154.764         0.143208        -115.177
60.15                   0.143407        -115.346         0.989604         154.717         0.989436         154.729         0.143392        -115.211
60.16                    0.14359        -115.381         0.989574         154.682         0.989406         154.694         0.143575        -115.246
60.17                   0.143773        -115.415         0.989544         154.647         0.989376         154.659         0.143758        -115.281
60.18                   0.143956        -115.449         0.989514         154.611         0.989347         154.624         0.143942        -115.316
60.19                   0.144139        -115.484         0.989485         154.576         0.989317         154.589         0.144125        -115.351
60.2                    0.144321        -115.518         0.989455         154.541         0.989287         154.554         0.144308        -115.386
60.21                   0.144504        -115.553         0.989425         154.506         0.989258         154.519         0.144492         -115.42
60.22                   0.144687        -115.587         0.989395         154.471         0.989228         154.484         0.144675        -115.455
60.23                    0.14487        -115.622         0.989366         154.435         0.989198         154.449         0.144858         -115.49
60.24                   0.145052        -115.656         0.989336           154.4         0.989169         154.414         0.145041        -115.525
60.25                   0.145235         -115.69         0.989306         154.365         0.989139         154.379         0.145224         -115.56
60.26                   0.145418        -115.725         0.989276          154.33         0.989109         154.344         0.145407        -115.595
60.27                     0.1456        -115.759         0.989247         154.295          0.98908         154.309          0.14559         -115.63
60.28                   0.145783        -115.794         0.989217          154.26          0.98905         154.274         0.145773        -115.664
60.29                   0.145965        -115.828         0.989187         154.224         0.989021         154.239         0.145956        -115.699
60.3                    0.146148        -115.863         0.989158         154.189         0.988991         154.204         0.146139        -115.734
60.31                    0.14633        -115.897         0.989128         154.154         0.988962         154.169         0.146322        -115.769
60.32                   0.146513        -115.932         0.989098         154.119         0.988932         154.134         0.146505        -115.804
60.33                   0.146695        -115.966         0.989069         154.084         0.988902         154.099         0.146687        -115.839
60.34                   0.146877        -116.001         0.989039         154.049         0.988873         154.064          0.14687        -115.874
60.35                    0.14706        -116.035         0.989009         154.014         0.988843         154.029         0.147053        -115.908
60.36                   0.147242         -116.07          0.98898         153.978         0.988814         153.994         0.147235        -115.943
60.37                   0.147424        -116.104          0.98895         153.943         0.988784         153.959         0.147418        -115.978
60.38                   0.147606        -116.139         0.988921         153.908         0.988755         153.924           0.1476        -116.013
60.39                   0.147789        -116.174         0.988891         153.873         0.988725         153.889         0.147783        -116.048
60.4                    0.147971        -116.208         0.988861         153.838         0.988696         153.854         0.147965        -116.083
60.41                   0.148153        -116.243         0.988832         153.803         0.988666         153.819         0.148148        -116.118
60.42                   0.148335        -116.277         0.988802         153.768         0.988637         153.784          0.14833        -116.153
60.43                   0.148517        -116.312         0.988773         153.733         0.988607         153.749         0.148512        -116.187
60.44                   0.148699        -116.346         0.988743         153.697         0.988578         153.714         0.148695        -116.222
60.45                   0.148881        -116.381         0.988714         153.662         0.988548         153.679         0.148877        -116.257
60.46                   0.149063        -116.415         0.988684         153.627         0.988519         153.644         0.149059        -116.292
60.47                   0.149244         -116.45         0.988654         153.592         0.988489         153.609         0.149241        -116.327
60.48                   0.149426        -116.485         0.988625         153.557          0.98846         153.574         0.149423        -116.362
60.49                   0.149608        -116.519         0.988595         153.522         0.988431         153.539         0.149605        -116.397
60.5                     0.14979        -116.554         0.988566         153.487         0.988401         153.504         0.149787        -116.432
60.51                   0.149971        -116.588         0.988536         153.452         0.988372         153.469         0.149969        -116.467
60.52                   0.150153        -116.623         0.988507         153.416         0.988342         153.434         0.150151        -116.501
60.53                   0.150334        -116.657         0.988477         153.381         0.988313         153.399         0.150333        -116.536
60.54                   0.150516        -116.692         0.988448         153.346         0.988284         153.364         0.150515        -116.571
60.55                   0.150698        -116.727         0.988418         153.311         0.988254         153.329         0.150697        -116.606
60.56                   0.150879        -116.761         0.988389         153.276         0.988225         153.294         0.150879        -116.641
60.57                    0.15106        -116.796         0.988359         153.241         0.988195         153.259          0.15106        -116.676
60.58                   0.151242        -116.831          0.98833         153.206         0.988166         153.224         0.151242        -116.711
60.59                   0.151423        -116.865           0.9883         153.171         0.988137         153.189         0.151424        -116.746
60.6                    0.151604          -116.9         0.988271         153.136         0.988107         153.154         0.151605        -116.781
60.61                   0.151786        -116.934         0.988241         153.101         0.988078         153.119         0.151787        -116.816
60.62                   0.151967        -116.969         0.988212         153.066         0.988049         153.084         0.151968         -116.85
60.63                   0.152148        -117.004         0.988182         153.031         0.988019         153.049          0.15215        -116.885
60.64                   0.152329        -117.038         0.988153         152.995          0.98799         153.014         0.152331         -116.92
60.65                    0.15251        -117.073         0.988123          152.96         0.987961         152.979         0.152512        -116.955
60.66                   0.152691        -117.108         0.988094         152.925         0.987932         152.944         0.152694         -116.99
60.67                   0.152872        -117.142         0.988065          152.89         0.987902         152.909         0.152875        -117.025
60.68                   0.153053        -117.177         0.988035         152.855         0.987873         152.874         0.153056         -117.06
60.69                   0.153234        -117.212         0.988006          152.82         0.987844         152.839         0.153237        -117.095
60.7                    0.153415        -117.246         0.987976         152.785         0.987815         152.804         0.153418         -117.13
60.71                   0.153596        -117.281         0.987947          152.75         0.987785         152.769         0.153599        -117.165
60.72                   0.153777        -117.316         0.987917         152.715         0.987756         152.735          0.15378          -117.2
60.73                   0.153957         -117.35         0.987888          152.68         0.987727           152.7         0.153961        -117.234
60.74                   0.154138        -117.385         0.987859         152.645         0.987698         152.665         0.154142        -117.269
60.75                   0.154319         -117.42         0.987829          152.61         0.987669          152.63         0.154323        -117.304
60.76                   0.154499        -117.454           0.9878         152.575         0.987639         152.595         0.154504        -117.339
60.77                    0.15468        -117.489          0.98777          152.54          0.98761          152.56         0.154685        -117.374
60.78                   0.154861        -117.524         0.987741         152.505         0.987581         152.525         0.154865        -117.409
60.79                   0.155041        -117.558         0.987712          152.47         0.987552          152.49         0.155046        -117.444
60.8                    0.155221        -117.593         0.987682         152.435         0.987523         152.455         0.155227        -117.479
60.81                   0.155402        -117.628         0.987653           152.4         0.987494          152.42         0.155407        -117.514
60.82                   0.155582        -117.662         0.987623         152.365         0.987465         152.385         0.155588        -117.549
60.83                   0.155762        -117.697         0.987594          152.33         0.987435          152.35         0.155768        -117.584
60.84                   0.155943        -117.732         0.987565         152.295         0.987406         152.315         0.155949        -117.619
60.85                   0.156123        -117.767         0.987535         152.259         0.987377          152.28         0.156129        -117.653
60.86                   0.156303        -117.801         0.987506         152.224         0.987348         152.245         0.156309        -117.688
60.87                   0.156483        -117.836         0.987476         152.189         0.987319          152.21          0.15649        -117.723
60.88                   0.156663        -117.871         0.987447         152.154          0.98729         152.175          0.15667        -117.758
60.89                   0.156843        -117.905         0.987418         152.119         0.987261          152.14          0.15685        -117.793
60.9                    0.157023         -117.94         0.987388         152.084         0.987232         152.105          0.15703        -117.828
60.91                   0.157203        -117.975         0.987359         152.049         0.987203          152.07          0.15721        -117.863
60.92                   0.157383         -118.01          0.98733         152.014         0.987174         152.035         0.157391        -117.898
60.93                   0.157563        -118.044           0.9873         151.979         0.987145             152         0.157571        -117.933
60.94                   0.157742        -118.079         0.987271         151.944         0.987116         151.965          0.15775        -117.968
60.95                   0.157922        -118.114         0.987241         151.909         0.987087          151.93          0.15793        -118.003
60.96                   0.158102        -118.148         0.987212         151.874         0.987058         151.896          0.15811        -118.038
60.97                   0.158282        -118.183         0.987183         151.839         0.987029         151.861          0.15829        -118.073
60.98                   0.158461        -118.218         0.987153         151.804            0.987         151.826          0.15847        -118.107
60.99                   0.158641        -118.253         0.987124          151.77         0.986971         151.791         0.158649        -118.142
61                       0.15882        -118.287         0.987095         151.735         0.986942         151.756         0.158829        -118.177
61.01                      0.159        -118.322         0.987065           151.7         0.986913         151.721         0.159009        -118.212
61.02                   0.159179        -118.357         0.987036         151.665         0.986885         151.686         0.159188        -118.247
61.03                   0.159358        -118.392         0.987006          151.63         0.986856         151.651         0.159368        -118.282
61.04                   0.159538        -118.426         0.986977         151.595         0.986827         151.616         0.159547        -118.317
61.05                   0.159717        -118.461         0.986948          151.56         0.986798         151.581         0.159727        -118.352
61.06                   0.159896        -118.496         0.986918         151.525         0.986769         151.546         0.159906        -118.387
61.07                   0.160075        -118.531         0.986889          151.49          0.98674         151.511         0.160085        -118.422
61.08                   0.160254        -118.565          0.98686         151.455         0.986711         151.476         0.160264        -118.457
61.09                   0.160433          -118.6          0.98683          151.42         0.986682         151.441         0.160444        -118.492
61.1                    0.160612        -118.635         0.986801         151.385         0.986654         151.406         0.160623        -118.526
61.11                   0.160791         -118.67         0.986771          151.35         0.986625         151.372         0.160802        -118.561
61.12                    0.16097        -118.705         0.986742         151.315         0.986596         151.337         0.160981        -118.596
61.13                   0.161149        -118.739         0.986713          151.28         0.986567         151.302          0.16116        -118.631
61.14                   0.161328        -118.774         0.986683         151.245         0.986539         151.267         0.161339        -118.666
61.15                   0.161506        -118.809         0.986654          151.21          0.98651         151.232         0.161518        -118.701
61.16                   0.161685        -118.844         0.986624         151.175         0.986481         151.197         0.161696        -118.736
61.17                   0.161864        -118.878         0.986595          151.14         0.986452         151.162         0.161875        -118.771
61.18                   0.162042        -118.913         0.986566         151.105         0.986424         151.127         0.162054        -118.806
61.19                   0.162221        -118.948         0.986536          151.07         0.986395         151.092         0.162233        -118.841
61.2                    0.162399        -118.983         0.986507         151.036         0.986366         151.057         0.162411        -118.876
61.21                   0.162578        -119.018         0.986477         151.001         0.986337         151.022          0.16259        -118.911
61.22                   0.162756        -119.052         0.986448         150.966         0.986309         150.987         0.162768        -118.946
61.23                   0.162934        -119.087         0.986419         150.931          0.98628         150.953         0.162947         -118.98
61.24                   0.163113        -119.122         0.986389         150.896         0.986251         150.918         0.163125        -119.015
61.25                   0.163291        -119.157          0.98636         150.861         0.986223         150.883         0.163303         -119.05
61.26                   0.163469        -119.191          0.98633         150.826         0.986194         150.848         0.163482        -119.085
61.27                   0.163647        -119.226         0.986301         150.791         0.986165         150.813          0.16366         -119.12
61.28                   0.163825        -119.261         0.986272         150.756         0.986137         150.778         0.163838        -119.155
61.29                   0.164003        -119.296         0.986242         150.721         0.986108         150.743         0.164016         -119.19
61.3                    0.164181        -119.331         0.986213         150.687          0.98608         150.708         0.164194        -119.225
61.31                   0.164359        -119.365         0.986183         150.652         0.986051         150.673         0.164372         -119.26
61.32                   0.164537          -119.4         0.986154         150.617         0.986022         150.639          0.16455        -119.295
61.33                   0.164715        -119.435         0.986124         150.582         0.985994         150.604         0.164728         -119.33
61.34                   0.164892         -119.47         0.986095         150.547         0.985965         150.569         0.164906        -119.364
61.35                    0.16507        -119.505         0.986065         150.512         0.985937         150.534         0.165084        -119.399
61.36                   0.165248        -119.539         0.986036         150.477         0.985908         150.499         0.165262        -119.434
61.37                   0.165425        -119.574         0.986007         150.442          0.98588         150.464         0.165439        -119.469
61.38                   0.165603        -119.609         0.985977         150.407         0.985851         150.429         0.165617        -119.504
61.39                    0.16578        -119.644         0.985948         150.373         0.985823         150.394         0.165794        -119.539
61.4                    0.165958        -119.679         0.985918         150.338         0.985794         150.359         0.165972        -119.574
61.41                   0.166135        -119.713         0.985889         150.303         0.985766         150.325         0.166149        -119.609
61.42                   0.166312        -119.748         0.985859         150.268         0.985737          150.29         0.166327        -119.644
61.43                    0.16649        -119.783          0.98583         150.233         0.985709         150.255         0.166504        -119.679
61.44                   0.166667        -119.818           0.9858         150.198          0.98568          150.22         0.166682        -119.714
61.45                   0.166844        -119.853         0.985771         150.163         0.985652         150.185         0.166859        -119.748
61.46                   0.167021        -119.887         0.985741         150.129         0.985623          150.15         0.167036        -119.783
61.47                   0.167198        -119.922         0.985712         150.094         0.985595         150.115         0.167213        -119.818
61.48                   0.167375        -119.957         0.985682         150.059         0.985566         150.081          0.16739        -119.853
61.49                   0.167552        -119.992         0.985653         150.024         0.985538         150.046         0.167567        -119.888
61.5                    0.167729        -120.027         0.985623         149.989          0.98551         150.011         0.167744        -119.923
61.51                   0.167905        -120.061         0.985593         149.954         0.985481         149.976         0.167921        -119.958
61.52                   0.168082        -120.096         0.985564          149.92         0.985453         149.941         0.168098        -119.993
61.53                   0.168259        -120.131         0.985534         149.885         0.985424         149.906         0.168275        -120.028
61.54                   0.168436        -120.166         0.985505          149.85         0.985396         149.872         0.168451        -120.062
61.55                   0.168612        -120.201         0.985475         149.815         0.985368         149.837         0.168628        -120.097
61.56                   0.168789        -120.236         0.985446          149.78         0.985339         149.802         0.168805        -120.132
61.57                   0.168965         -120.27         0.985416         149.746         0.985311         149.767         0.168981        -120.167
61.58                   0.169141        -120.305         0.985386         149.711         0.985283         149.732         0.169158        -120.202
61.59                   0.169318         -120.34         0.985357         149.676         0.985254         149.697         0.169334        -120.237
61.6                    0.169494        -120.375         0.985327         149.641         0.985226         149.663         0.169511        -120.272
61.61                    0.16967         -120.41         0.985298         149.606         0.985198         149.628         0.169687        -120.307
61.62                   0.169846        -120.444         0.985268         149.572         0.985169         149.593         0.169863        -120.342
61.63                   0.170023        -120.479         0.985238         149.537         0.985141         149.558         0.170039        -120.376
61.64                   0.170199        -120.514         0.985209         149.502         0.985113         149.523         0.170216        -120.411
61.65                   0.170375        -120.549         0.985179         149.467         0.985084         149.488         0.170392        -120.446
61.66                   0.170551        -120.584         0.985149         149.432         0.985056         149.454         0.170568        -120.481
61.67                   0.170726        -120.618          0.98512         149.398         0.985028         149.419         0.170744        -120.516
61.68                   0.170902        -120.653          0.98509         149.363            0.985         149.384          0.17092        -120.551
61.69                   0.171078        -120.688          0.98506         149.328         0.984971         149.349         0.171096        -120.586
61.7                    0.171254        -120.723         0.985031         149.293         0.984943         149.314         0.171271        -120.621
61.71                   0.171429        -120.758         0.985001         149.259         0.984915          149.28         0.171447        -120.655
61.72                   0.171605        -120.792         0.984971         149.224         0.984887         149.245         0.171623         -120.69
61.73                    0.17178        -120.827         0.984941         149.189         0.984858          149.21         0.171798        -120.725
61.74                   0.171956        -120.862         0.984912         149.154          0.98483         149.175         0.171974         -120.76
61.75                   0.172131        -120.897         0.984882         149.119         0.984802          149.14         0.172149        -120.795
61.76                   0.172307        -120.932         0.984852         149.085         0.984774         149.106         0.172325         -120.83
61.77                   0.172482        -120.966         0.984822          149.05         0.984745         149.071           0.1725        -120.865
61.78                   0.172657        -121.001         0.984793         149.015         0.984717         149.036         0.172676        -120.899
61.79                   0.172832        -121.036         0.984763          148.98         0.984689         149.001         0.172851        -120.934
61.8                    0.173007        -121.071         0.984733         148.946         0.984661         148.967         0.173026        -120.969
61.81                   0.173182        -121.106         0.984703         148.911         0.984633         148.932         0.173201        -121.004
61.82                   0.173357         -121.14         0.984673         148.876         0.984604         148.897         0.173376        -121.039
61.83                   0.173532        -121.175         0.984644         148.842         0.984576         148.862         0.173551        -121.074
61.84                   0.173707         -121.21         0.984614         148.807         0.984548         148.828         0.173726        -121.109
61.85                   0.173882        -121.245         0.984584         148.772          0.98452         148.793         0.173901        -121.143
61.86                   0.174057         -121.28         0.984554         148.737         0.984492         148.758         0.174076        -121.178
61.87                   0.174231        -121.314         0.984524         148.703         0.984464         148.723         0.174251        -121.213
61.88                   0.174406        -121.349         0.984494         148.668         0.984435         148.688         0.174426        -121.248
61.89                   0.174581        -121.384         0.984464         148.633         0.984407         148.654           0.1746        -121.283
61.9                    0.174755        -121.419         0.984434         148.599         0.984379         148.619         0.174775        -121.318
61.91                    0.17493        -121.454         0.984405         148.564         0.984351         148.584          0.17495        -121.352
61.92                   0.175104        -121.488         0.984375         148.529         0.984323          148.55         0.175124        -121.387
61.93                   0.175278        -121.523         0.984345         148.494         0.984295         148.515         0.175298        -121.422
61.94                   0.175453        -121.558         0.984315          148.46         0.984266          148.48         0.175473        -121.457
61.95                   0.175627        -121.593         0.984285         148.425         0.984238         148.445         0.175647        -121.492
61.96                   0.175801        -121.628         0.984255          148.39          0.98421         148.411         0.175821        -121.527