! TOUCHSTONE file generated by CST MICROWAVE STUDIO
! Date and time: Mon Feb 26 23:25:14 2024
! Project name: material_desal.cst
! Header version: 2018
! Port assignment regex: !\s*Touchstone port\s*([0-9]+)\s*=\s*(CST MWS port|CST DS port)\s*([0-9]+|Zmin|Zmax)\s*\(\"(.*)\"\)(\s*mode\s*([0-9]+))?.*
! Touchstone port assignment:
! Touchstone port 1 = CST MWS port 1 ("")
! Touchstone port 2 = CST MWS port 2 ("")
# GHz S MA R 376.7
60                     0.0714517        -111.209         0.997475         158.911         0.997424          158.91        0.0714477        -110.988
60.01                  0.0750673        -111.428         0.997206         158.677         0.997162         158.676        0.0750642        -111.234
60.02                  0.0784838        -111.638          0.99694         158.454         0.996902         158.453        0.0784814        -111.467
60.03                  0.0817184        -111.839         0.996677         158.241         0.996644          158.24        0.0817166        -111.688
60.04                  0.0847863        -112.033         0.996418         158.038          0.99639         158.038         0.084785        -111.898
60.05                  0.0877011         -112.22         0.996164         157.844         0.996139         157.844        0.0877002        -112.098
60.06                  0.0904749          -112.4         0.995913         157.658         0.995893         157.658        0.0904742        -112.289
60.07                  0.0931187        -112.573         0.995667          157.48          0.99565         157.479        0.0931182        -112.472
60.08                  0.0956422         -112.74         0.995426         157.308         0.995412         157.308        0.0956418        -112.647
60.09                  0.0980542        -112.901          0.99519         157.143         0.995178         157.143         0.098054        -112.815
60.1                    0.100363        -113.057         0.994958         156.984         0.994949         156.984         0.100363        -112.977
60.11                   0.102575        -113.208         0.994731          156.83         0.994724          156.83         0.102575        -113.133
60.12                   0.104698        -113.354         0.994508         156.682         0.994503         156.682         0.104698        -113.284
60.13                   0.106738        -113.495          0.99429         156.538         0.994287         156.538         0.106738        -113.429
60.14                   0.108699        -113.633         0.994077         156.399         0.994074         156.399         0.108699         -113.57
60.15                   0.110587        -113.766         0.993867         156.264         0.993866         156.264         0.110587        -113.706
60.16                   0.112407        -113.896         0.993662         156.133         0.993662         156.133         0.112407        -113.839
60.17                   0.114162        -114.022         0.993461         156.005         0.993462         156.005         0.114162        -113.967
60.18                   0.115858        -114.145         0.993264         155.881         0.993266         155.881         0.115858        -114.092
60.19                   0.117496        -114.265         0.993071         155.761         0.993074         155.761         0.117496        -114.214
60.2                    0.119081        -114.382         0.992882         155.643         0.992885         155.643         0.119081        -114.332
60.21                   0.120615        -114.496         0.992696         155.528           0.9927         155.528         0.120615        -114.447
60.22                   0.122102        -114.607         0.992514         155.416         0.992518         155.416         0.122102         -114.56
60.23                   0.123544        -114.716         0.992335         155.307         0.992339         155.307         0.123544         -114.67
60.24                   0.124943        -114.822          0.99216           155.2         0.992164           155.2         0.124943        -114.778
60.25                   0.126302        -114.926         0.991987         155.095         0.991992         155.095         0.126302        -114.883
60.26                   0.127622        -115.029         0.991818         154.993         0.991823         154.993         0.127622        -114.986
60.27                   0.128907        -115.129         0.991652         154.893         0.991657         154.893         0.128907        -115.086
60.28                   0.130157        -115.227         0.991488         154.794         0.991494         154.794         0.130157        -115.185
60.29                   0.131374        -115.323         0.991328         154.698         0.991333         154.698         0.131374        -115.282
60.3                     0.13256        -115.417          0.99117         154.603         0.991175         154.603          0.13256        -115.377
60.31                   0.133716         -115.51         0.991014          154.51          0.99102          154.51         0.133716         -115.47
60.32                   0.134844        -115.602         0.990861         154.418         0.990867         154.418         0.134844        -115.562
60.33                   0.135945        -115.691         0.990711         154.328         0.990716         154.328         0.135945        -115.652
60.34                   0.137021         -115.78         0.990563          154.24         0.990568          154.24         0.137021        -115.741
60.35                   0.138072        -115.867         0.990417         154.153         0.990422         154.153         0.138072        -115.828
60.36                   0.139099        -115.952         0.990273         154.067         0.990278         154.067         0.139099        -115.914
60.37                   0.140104        -116.036         0.990132         153.983         0.990137         153.983         0.140104        -115.998
60.38                   0.141088         -116.12         0.989992         153.899         0.989997         153.899         0.141088        -116.082
60.39                   0.142051        -116.202         0.989855         153.817         0.989859         153.817         0.142051        -116.164
60.4                    0.142994        -116.282         0.989719         153.736         0.989723         153.736         0.142994        -116.245
60.41                   0.143918        -116.362         0.989585         153.657         0.989589         153.657         0.143918        -116.325
60.42                   0.144824        -116.441         0.989453         153.578         0.989457         153.578         0.144824        -116.404
60.43                   0.145713        -116.519         0.989323           153.5         0.989326           153.5         0.145713        -116.482
60.44                   0.146585        -116.596         0.989194         153.423         0.989198         153.423         0.146585        -116.559
60.45                   0.147441        -116.671         0.989067         153.347          0.98907         153.347         0.147442        -116.635
60.46                   0.148282        -116.747         0.988942         153.272         0.988945         153.272         0.148282         -116.71
60.47                   0.149108        -116.821         0.988818         153.198         0.988821         153.198         0.149108        -116.784
60.48                    0.14992        -116.894         0.988695         153.124         0.988698         153.124          0.14992        -116.858
60.49                   0.150717        -116.967         0.988574         153.051         0.988577         153.051         0.150717        -116.931
60.5                    0.151502        -117.039         0.988454         152.979         0.988457         152.979         0.151502        -117.003
60.51                   0.152274         -117.11         0.988336         152.908         0.988338         152.908         0.152274        -117.074
60.52                   0.153033        -117.181         0.988219         152.838         0.988221         152.838         0.153033        -117.145
60.53                   0.153781         -117.25         0.988103         152.768         0.988105         152.768         0.153781        -117.214
60.54                   0.154517         -117.32         0.987988         152.698          0.98799         152.698         0.154517        -117.284
60.55                   0.155243        -117.388         0.987875          152.63         0.987876          152.63         0.155243        -117.352
60.56                   0.155957        -117.456         0.987763         152.562         0.987764         152.562         0.155957         -117.42
60.57                   0.156661        -117.524         0.987651         152.494         0.987652         152.494         0.156661        -117.488
60.58                   0.157356        -117.591         0.987541         152.427         0.987542         152.427         0.157356        -117.555
60.59                    0.15804        -117.657         0.987432         152.361         0.987433         152.361          0.15804        -117.621
60.6                    0.158715        -117.723         0.987324         152.295         0.987324         152.295         0.158716        -117.687
60.61                   0.159382        -117.788         0.987217          152.23         0.987217          152.23         0.159382        -117.752
60.62                   0.160039        -117.853         0.987111         152.165         0.987111         152.165         0.160039        -117.817
60.63                   0.160689        -117.917         0.987005           152.1         0.987005           152.1         0.160689        -117.882
60.64                    0.16133        -117.981         0.986901         152.036         0.986901         152.036         0.161329        -117.946
60.65                   0.161963        -118.045         0.986797         151.973         0.986797         151.973         0.161963        -118.009
60.66                   0.162588        -118.108         0.986695          151.91         0.986694          151.91         0.162588        -118.072
60.67                   0.163206        -118.171         0.986593         151.847         0.986592         151.847         0.163206        -118.135
60.68                   0.163817        -118.233         0.986492         151.785         0.986491         151.785         0.163816        -118.197
60.69                    0.16442        -118.295         0.986392         151.723         0.986391         151.723          0.16442        -118.259
60.7                    0.165017        -118.356         0.986292         151.661         0.986291         151.661         0.165017        -118.321
60.71                   0.165608        -118.417         0.986193           151.6         0.986192           151.6         0.165607        -118.382
60.72                   0.166191        -118.478         0.986095         151.539         0.986094         151.539         0.166191        -118.443
60.73                   0.166769        -118.539         0.985998         151.479         0.985996         151.479         0.166769        -118.503
60.74                   0.167341        -118.599         0.985901         151.419           0.9859         151.419         0.167341        -118.564
60.75                   0.167907        -118.659         0.985805         151.359         0.985803         151.359         0.167906        -118.623
60.76                   0.168467        -118.718          0.98571         151.299         0.985708         151.299         0.168466        -118.683
60.77                   0.169021        -118.778         0.985615          151.24         0.985613          151.24         0.169021        -118.742
60.78                    0.16957        -118.837         0.985521         151.181         0.985519         151.181          0.16957        -118.801
60.79                   0.170114        -118.895         0.985427         151.122         0.985425         151.122         0.170114         -118.86
60.8                    0.170653        -118.954         0.985334         151.064         0.985332         151.064         0.170653        -118.919
60.81                   0.171187        -119.012         0.985242         151.005         0.985239         151.005         0.171187        -118.977
60.82                   0.171716         -119.07          0.98515         150.947         0.985147         150.948         0.171716        -119.035
60.83                    0.17224        -119.128         0.985058          150.89         0.985056          150.89          0.17224        -119.092
60.84                    0.17276        -119.185         0.984967         150.832         0.984965         150.832          0.17276         -119.15
60.85                   0.173275        -119.243         0.984877         150.775         0.984874         150.775         0.173275        -119.207
60.86                   0.173786          -119.3         0.984787         150.718         0.984784         150.718         0.173786        -119.264
60.87                   0.174293        -119.356         0.984697         150.661         0.984695         150.661         0.174293        -119.321
60.88                   0.174796        -119.413         0.984608         150.605         0.984606         150.605         0.174795        -119.377
60.89                   0.175294        -119.469          0.98452         150.548         0.984517         150.548         0.175294        -119.434
60.9                    0.175789        -119.526         0.984432         150.492         0.984429         150.492         0.175788         -119.49
60.91                    0.17628        -119.582         0.984344         150.436         0.984341         150.436         0.176279        -119.546
60.92                   0.176767        -119.638         0.984257          150.38         0.984254          150.38         0.176766        -119.602
60.93                    0.17725        -119.693          0.98417         150.324         0.984167         150.325          0.17725        -119.657
60.94                    0.17773        -119.749         0.984083         150.269          0.98408         150.269          0.17773        -119.713
60.95                   0.178207        -119.804         0.983997         150.214         0.983994         150.214         0.178206        -119.768
60.96                    0.17868        -119.859         0.983911         150.158         0.983909         150.159         0.178679        -119.823
60.97                    0.17915        -119.914         0.983826         150.103         0.983823         150.103         0.179149        -119.878
60.98                   0.179616        -119.969         0.983741         150.048         0.983738         150.049         0.179615        -119.933
60.99                    0.18008        -120.024         0.983656         149.994         0.983653         149.994         0.180079        -119.988
61                       0.18054        -120.079         0.983572         149.939         0.983569         149.939         0.180539        -120.042
61.01                   0.180997        -120.133         0.983488         149.885         0.983485         149.885         0.180997        -120.097
61.02                   0.181452        -120.187         0.983404          149.83         0.983401         149.831         0.181451        -120.151
61.03                   0.181903        -120.242          0.98332         149.776         0.983318         149.776         0.181902        -120.205
61.04                   0.182352        -120.296         0.983237         149.722         0.983235         149.722         0.182351        -120.259
61.05                   0.182798         -120.35         0.983155         149.668         0.983152         149.668         0.182797        -120.313
61.06                   0.183241        -120.404         0.983072         149.614         0.983069         149.614         0.183241        -120.367
61.07                   0.183682        -120.457          0.98299          149.56         0.982987         149.561         0.183681        -120.421
61.08                    0.18412        -120.511         0.982908         149.507         0.982905         149.507         0.184119        -120.475
61.09                   0.184556        -120.565         0.982826         149.453         0.982823         149.453         0.184555        -120.528
61.1                    0.184989        -120.618         0.982744           149.4         0.982742           149.4         0.184988        -120.581
61.11                    0.18542        -120.672         0.982663         149.346         0.982661         149.347         0.185419        -120.635
61.12                   0.185848        -120.725         0.982582         149.293          0.98258         149.293         0.185847        -120.688
61.13                   0.186274        -120.778         0.982502          149.24         0.982499          149.24         0.186273        -120.741
61.14                   0.186698        -120.831         0.982421         149.187         0.982419         149.187         0.186697        -120.794
61.15                    0.18712        -120.885         0.982341         149.134         0.982338         149.134         0.187119        -120.847
61.16                   0.187539        -120.938         0.982261         149.081         0.982258         149.081         0.187539          -120.9
61.17                   0.187957        -120.991         0.982181         149.028         0.982179         149.028         0.187956        -120.953
61.18                   0.188372        -121.043         0.982101         148.975         0.982099         148.975         0.188371        -121.006
61.19                   0.188785        -121.096         0.982022         148.922          0.98202         148.922         0.188785        -121.059
61.2                    0.189197        -121.149         0.981943         148.869         0.981941          148.87         0.189196        -121.111
61.21                   0.189606        -121.202         0.981864         148.817         0.981862         148.817         0.189605        -121.164
61.22                   0.190013        -121.255         0.981785         148.764         0.981783         148.764         0.190013        -121.217
61.23                   0.190419        -121.307         0.981706         148.712         0.981704         148.712         0.190418        -121.269
61.24                   0.190822         -121.36         0.981628         148.659         0.981626         148.659         0.190822        -121.322
61.25                   0.191224        -121.412         0.981549         148.606         0.981548         148.607         0.191224        -121.374
61.26                   0.191624        -121.465         0.981471         148.554          0.98147         148.554         0.191624        -121.427
61.27                   0.192023        -121.518         0.981393         148.502         0.981392         148.502         0.192022        -121.479
61.28                   0.192419         -121.57         0.981316         148.449         0.981314         148.449         0.192419        -121.531
61.29                   0.192814        -121.623         0.981238         148.397         0.981236         148.397         0.192814        -121.584
61.3                    0.193207        -121.675         0.981161         148.344         0.981159         148.344         0.193207        -121.636
61.31                   0.193599        -121.727         0.981083         148.292         0.981082         148.292         0.193598        -121.688
61.32                   0.193989         -121.78         0.981006         148.239         0.981005          148.24         0.193988        -121.741
61.33                   0.194377        -121.832         0.980929         148.187         0.980928         148.187         0.194377        -121.793
61.34                   0.194764        -121.885         0.980853         148.135         0.980851         148.135         0.194763        -121.845
61.35                   0.195149        -121.937         0.980776         148.082         0.980775         148.083         0.195149        -121.898
61.36                   0.195533         -121.99         0.980699          148.03         0.980698          148.03         0.195532         -121.95
61.37                   0.195915        -122.042         0.980623         147.978         0.980622         147.978         0.195915        -122.002
61.38                   0.196296        -122.095         0.980547         147.925         0.980546         147.925         0.196295        -122.054
61.39                   0.196675        -122.147         0.980471         147.873          0.98047         147.873         0.196675        -122.107
61.4                    0.197053          -122.2         0.980395          147.82         0.980394         147.821         0.197052        -122.159
61.41                   0.197429        -122.252         0.980319         147.768         0.980318         147.768         0.197429        -122.211
61.42                   0.197804        -122.305         0.980243         147.716         0.980242         147.716         0.197804        -122.264
61.43                   0.198178        -122.357         0.980168         147.663         0.980167         147.663         0.198177        -122.316
61.44                    0.19855         -122.41         0.980092          147.61         0.980092         147.611         0.198549        -122.369
61.45                    0.19892        -122.463         0.980017         147.558         0.980016         147.558          0.19892        -122.421
61.46                    0.19929        -122.515         0.979942         147.505         0.979941         147.505         0.199289        -122.474
61.47                   0.199657        -122.568         0.979867         147.453         0.979866         147.453         0.199657        -122.526
61.48                   0.200024        -122.621         0.979792           147.4         0.979792           147.4         0.200024        -122.579
61.49                   0.200389        -122.674         0.979718         147.347         0.979717         147.347         0.200389        -122.632
61.5                    0.200753        -122.727         0.979643         147.294         0.979642         147.294         0.200752        -122.684
61.51                   0.201115         -122.78         0.979569         147.241         0.979568         147.241         0.201115        -122.737
61.52                   0.201476        -122.833         0.979494         147.188         0.979494         147.188         0.201476         -122.79
61.53                   0.201835        -122.886          0.97942         147.135          0.97942         147.135         0.201835        -122.843
61.54                   0.202193         -122.94         0.979346         147.082         0.979346         147.082         0.202193        -122.896
61.55                    0.20255        -122.993         0.979273         147.029         0.979272         147.029          0.20255        -122.949
61.56                   0.202905        -123.047         0.979199         146.975         0.979199         146.975         0.202905        -123.003
61.57                   0.203259          -123.1         0.979126         146.922         0.979125         146.922         0.203259        -123.056
61.58                   0.203612        -123.154         0.979052         146.868         0.979052         146.868         0.203611        -123.109
61.59                   0.203962        -123.208         0.978979         146.815         0.978979         146.815         0.203962        -123.163
61.6                    0.204312        -123.262         0.978906         146.761         0.978906         146.761         0.204312        -123.217
61.61                    0.20466        -123.316         0.978834         146.707         0.978833         146.707         0.204659         -123.27
61.62                   0.205006         -123.37         0.978761         146.653         0.978761         146.653         0.205006        -123.324
61.63                    0.20535        -123.424         0.978689         146.599         0.978689         146.599          0.20535        -123.378
61.64                   0.205693        -123.479         0.978617         146.544         0.978617         146.544         0.205693        -123.433
61.65                   0.206035        -123.534         0.978545          146.49         0.978545          146.49         0.206035        -123.487
61.66                   0.206374        -123.588         0.978473         146.435         0.978473         146.435         0.206374        -123.542
61.67                   0.206712        -123.643         0.978402          146.38         0.978402          146.38         0.206712        -123.596
61.68                   0.207048        -123.699         0.978331         146.325         0.978331         146.325         0.207048        -123.651
61.69                   0.207382        -123.754          0.97826          146.27          0.97826          146.27         0.207382        -123.706
61.7                    0.207713         -123.81          0.97819         146.214          0.97819         146.214         0.207714        -123.762
61.71                   0.208043        -123.866         0.978119         146.159         0.978119         146.159         0.208043        -123.817
61.72                   0.208371        -123.922          0.97805         146.103          0.97805         146.103         0.208371        -123.873
61.73                   0.208696        -123.978          0.97798         146.047          0.97798         146.047         0.208696        -123.929
61.74                   0.209019        -124.035         0.977911          145.99         0.977911          145.99         0.209019        -123.985
61.75                    0.20934        -124.092         0.977843         145.934         0.977843         145.934          0.20934        -124.041
61.76                   0.209658        -124.149         0.977774         145.877         0.977775         145.877         0.209658        -124.098
61.77                   0.209973        -124.206         0.977707         145.819         0.977707         145.819         0.209973        -124.155
61.78                   0.210285        -124.264          0.97764         145.762          0.97764         145.762         0.210285        -124.212
61.79                   0.210594        -124.322         0.977573         145.704         0.977573         145.704         0.210594         -124.27
61.8                      0.2109        -124.381         0.977507         145.646         0.977507         145.646           0.2109        -124.328
61.81                   0.211202         -124.44         0.977442         145.587         0.977442         145.587         0.211203        -124.386
61.82                   0.211501        -124.499         0.977377         145.528         0.977377         145.528         0.211501        -124.445
61.83                   0.211796        -124.559         0.977313         145.469         0.977314         145.469         0.211796        -124.504
61.84                   0.212086        -124.619          0.97725         145.409         0.977251         145.409         0.212086        -124.564
61.85                   0.212372        -124.679         0.977188         145.348         0.977188         145.348         0.212372        -124.624
61.86                   0.212653         -124.74         0.977127         145.288         0.977127         145.288         0.212653        -124.684
61.87                   0.212929        -124.802         0.977067         145.226         0.977067         145.226         0.212929        -124.745
61.88                   0.213199        -124.864         0.977008         145.165         0.977008         145.164         0.213199        -124.807
61.89                   0.213463        -124.927          0.97695         145.102         0.976951         145.102         0.213464        -124.869
61.9                    0.213721        -124.991         0.976894         145.039         0.976894         145.039         0.213721        -124.932
61.91                   0.213971        -125.055         0.976839         144.975         0.976839         144.975         0.213972        -124.995
61.92                   0.214214         -125.12         0.976786         144.911         0.976786         144.911         0.214215        -125.059
61.93                   0.214449        -125.185         0.976734         144.846         0.976735         144.845         0.214449        -125.124
61.94                   0.214674        -125.252         0.976685          144.78         0.976685         144.779         0.214674        -125.189
61.95                   0.214889        -125.319         0.976638         144.713         0.976638         144.713          0.21489        -125.256
61.96                   0.215094        -125.387         0.976593         144.645         0.976593         144.645         0.215094        -125.323
61.97                   0.215286        -125.457          0.97655         144.576         0.976551         144.576         0.215286        -125.392