! TOUCHSTONE file generated by CST MICROWAVE STUDIO
! Date and time: Sun Mar  3 12:09:16 2024
! Project name: material_angular.cst
! Parameters = {d=8.9; Yi=5; iiii=5; exis2=5; exis=5; X=5; Z=5; Y=2}
! Header version: 2018
! Port assignment regex: !\s*Touchstone port\s*([0-9]+)\s*=\s*(CST MWS port|CST DS port)\s*([0-9]+|Zmin|Zmax)\s*\(\"(.*)\"\)(\s*mode\s*([0-9]+))?.*
! Touchstone port assignment:
! Touchstone port 1 = CST MWS port 1 ("")
! Touchstone port 2 = CST MWS port 2 ("")
# GHz S MA R 376.7
60                      0.140633         -129.24         0.990066         140.833         0.989934         140.835         0.140658         -129.12
60.01                   0.140816        -129.277          0.99004         140.795         0.989907         140.797         0.140842        -129.157
60.02                   0.140999        -129.315         0.990014         140.758          0.98988          140.76         0.141025        -129.194
60.03                   0.141182        -129.352         0.989987          140.72         0.989853         140.722         0.141208        -129.232
60.04                   0.141365        -129.389         0.989961         140.683         0.989825         140.685         0.141392        -129.269
60.05                   0.141548        -129.426         0.989935         140.645         0.989798         140.647         0.141575        -129.306
60.06                   0.141731        -129.464         0.989908         140.608         0.989771         140.609         0.141758        -129.343
60.07                   0.141914        -129.501         0.989882         140.571         0.989744         140.572         0.141941         -129.38
60.08                   0.142097        -129.538         0.989855         140.533         0.989716         140.534         0.142124        -129.417
60.09                    0.14228        -129.575         0.989829         140.496         0.989689         140.497         0.142308        -129.454
60.1                    0.142463        -129.613         0.989803         140.458         0.989662         140.459         0.142491        -129.491
60.11                   0.142646         -129.65         0.989776         140.421         0.989635         140.421         0.142674        -129.529
60.12                   0.142829        -129.687          0.98975         140.383         0.989607         140.384         0.142857        -129.566
60.13                   0.143012        -129.725         0.989723         140.346          0.98958         140.346          0.14304        -129.603
60.14                   0.143194        -129.762         0.989696         140.308         0.989553         140.309         0.143223         -129.64
60.15                   0.143377        -129.799          0.98967         140.271         0.989526         140.271         0.143406        -129.677
60.16                    0.14356        -129.836         0.989643         140.233         0.989498         140.234         0.143589        -129.714
60.17                   0.143742        -129.874         0.989616         140.196         0.989471         140.196         0.143771        -129.751
60.18                   0.143925        -129.911          0.98959         140.159         0.989444         140.158         0.143954        -129.789
60.19                   0.144108        -129.948         0.989563         140.121         0.989417         140.121         0.144137        -129.826
60.2                     0.14429        -129.986         0.989536         140.084         0.989389         140.083          0.14432        -129.863
60.21                   0.144473        -130.023          0.98951         140.046         0.989362         140.046         0.144502          -129.9
60.22                   0.144655         -130.06         0.989483         140.009         0.989335         140.008         0.144685        -129.937
60.23                   0.144838        -130.098         0.989456         139.971         0.989308         139.971         0.144868        -129.974
60.24                    0.14502        -130.135         0.989429         139.934          0.98928         139.933          0.14505        -130.011
60.25                   0.145202        -130.172         0.989402         139.897         0.989253         139.896         0.145233        -130.049
60.26                   0.145385         -130.21         0.989376         139.859         0.989226         139.858         0.145415        -130.086
60.27                   0.145567        -130.247         0.989349         139.822         0.989198         139.821         0.145598        -130.123
60.28                   0.145749        -130.284         0.989322         139.784         0.989171         139.783          0.14578         -130.16
60.29                   0.145932        -130.321         0.989295         139.747         0.989144         139.746         0.145963        -130.197
60.3                    0.146114        -130.359         0.989268         139.709         0.989117         139.708         0.146145        -130.234
60.31                   0.146296        -130.396         0.989241         139.672         0.989089         139.671         0.146327        -130.272
60.32                   0.146478        -130.433         0.989214         139.634         0.989062         139.633          0.14651        -130.309
60.33                    0.14666        -130.471         0.989187         139.597         0.989035         139.596         0.146692        -130.346
60.34                   0.146842        -130.508          0.98916          139.56         0.989007         139.558         0.146874        -130.383
60.35                   0.147024        -130.545         0.989133         139.522          0.98898         139.521         0.147056         -130.42
60.36                   0.147206        -130.583         0.989106         139.485         0.988953         139.483         0.147238        -130.458
60.37                   0.147388         -130.62         0.989078         139.447         0.988925         139.446          0.14742        -130.495
60.38                    0.14757        -130.657         0.989051          139.41         0.988898         139.408         0.147602        -130.532
60.39                   0.147752        -130.695         0.989024         139.373         0.988871         139.371         0.147784        -130.569
60.4                    0.147934        -130.732         0.988997         139.335         0.988843         139.333         0.147966        -130.606
60.41                   0.148116        -130.769          0.98897         139.298         0.988816         139.296         0.148148        -130.644
60.42                   0.148297        -130.807         0.988942          139.26         0.988788         139.258          0.14833        -130.681
60.43                   0.148479        -130.844         0.988915         139.223         0.988761         139.221         0.148512        -130.718
60.44                   0.148661        -130.881         0.988888         139.185         0.988734         139.183         0.148694        -130.755
60.45                   0.148842        -130.919         0.988861         139.148         0.988706         139.146         0.148876        -130.792
60.46                   0.149024        -130.956         0.988833         139.111         0.988679         139.108         0.149057         -130.83
60.47                   0.149206        -130.993         0.988806         139.073         0.988651         139.071         0.149239        -130.867
60.48                   0.149387        -131.031         0.988779         139.036         0.988624         139.034         0.149421        -130.904
60.49                   0.149569        -131.068         0.988751         138.998         0.988597         138.996         0.149602        -130.941
60.5                     0.14975        -131.105         0.988724         138.961         0.988569         138.959         0.149784        -130.978
60.51                   0.149931        -131.143         0.988696         138.924         0.988542         138.921         0.149965        -131.016
60.52                   0.150113         -131.18         0.988669         138.886         0.988514         138.884         0.150147        -131.053
60.53                   0.150294        -131.217         0.988641         138.849         0.988487         138.846         0.150328         -131.09
60.54                   0.150475        -131.255         0.988614         138.811         0.988459         138.809          0.15051        -131.127
60.55                   0.150657        -131.292         0.988586         138.774         0.988432         138.771         0.150691        -131.164
60.56                   0.150838        -131.329         0.988559         138.737         0.988404         138.734         0.150872        -131.202
60.57                   0.151019        -131.367         0.988531         138.699         0.988377         138.697         0.151054        -131.239
60.58                     0.1512        -131.404         0.988503         138.662         0.988349         138.659         0.151235        -131.276
60.59                   0.151381        -131.441         0.988476         138.625         0.988321         138.622         0.151416        -131.313
60.6                    0.151562        -131.479         0.988448         138.587         0.988294         138.584         0.151597         -131.35
60.61                   0.151743        -131.516          0.98842          138.55         0.988266         138.547         0.151778        -131.388
60.62                   0.151924        -131.553         0.988393         138.512         0.988239          138.51         0.151959        -131.425
60.63                   0.152105        -131.591         0.988365         138.475         0.988211         138.472          0.15214        -131.462
60.64                   0.152286        -131.628         0.988337         138.438         0.988184         138.435         0.152321        -131.499
60.65                   0.152467        -131.665         0.988309           138.4         0.988156         138.397         0.152502        -131.537
60.66                   0.152648        -131.703         0.988282         138.363         0.988128          138.36         0.152683        -131.574
60.67                   0.152829         -131.74         0.988254         138.325         0.988101         138.323         0.152864        -131.611
60.68                   0.153009        -131.777         0.988226         138.288         0.988073         138.285         0.153045        -131.648
60.69                    0.15319        -131.815         0.988198         138.251         0.988045         138.248         0.153225        -131.685
60.7                    0.153371        -131.852          0.98817         138.213         0.988018         138.211         0.153406        -131.723
60.71                   0.153551        -131.889         0.988142         138.176          0.98799         138.173         0.153587         -131.76
60.72                   0.153732        -131.927         0.988114         138.139         0.987962         138.136         0.153767        -131.797
60.73                   0.153912        -131.964         0.988086         138.101         0.987934         138.098         0.153948        -131.834
60.74                   0.154093        -132.001         0.988058         138.064         0.987907         138.061         0.154128        -131.872
60.75                   0.154273        -132.039          0.98803         138.027         0.987879         138.024         0.154309        -131.909
60.76                   0.154454        -132.076         0.988002         137.989         0.987851         137.986         0.154489        -131.946
60.77                   0.154634        -132.113         0.987974         137.952         0.987823         137.949          0.15467        -131.983
60.78                   0.154814        -132.151         0.987946         137.914         0.987795         137.912          0.15485        -132.021
60.79                   0.154995        -132.188         0.987918         137.877         0.987768         137.874          0.15503        -132.058
60.8                    0.155175        -132.225          0.98789          137.84          0.98774         137.837         0.155211        -132.095
60.81                   0.155355        -132.263         0.987862         137.802         0.987712           137.8         0.155391        -132.132
60.82                   0.155535          -132.3         0.987834         137.765         0.987684         137.762         0.155571        -132.169
60.83                   0.155715        -132.337         0.987805         137.728         0.987656         137.725         0.155751        -132.207
60.84                   0.155895        -132.375         0.987777          137.69         0.987628         137.688         0.155931        -132.244
60.85                   0.156075        -132.412         0.987749         137.653           0.9876          137.65         0.156111        -132.281
60.86                   0.156255        -132.449         0.987721         137.616         0.987572         137.613         0.156291        -132.318
60.87                   0.156435        -132.487         0.987692         137.578         0.987544         137.576         0.156471        -132.356
60.88                   0.156615        -132.524         0.987664         137.541         0.987516         137.538         0.156651        -132.393
60.89                   0.156795        -132.561         0.987636         137.504         0.987488         137.501         0.156831         -132.43
60.9                    0.156974        -132.599         0.987607         137.466          0.98746         137.464         0.157011        -132.467
60.91                   0.157154        -132.636         0.987579         137.429         0.987432         137.426          0.15719        -132.505
60.92                   0.157334        -132.673         0.987551         137.392         0.987404         137.389          0.15737        -132.542
60.93                   0.157513        -132.711         0.987522         137.354         0.987376         137.352          0.15755        -132.579
60.94                   0.157693        -132.748         0.987494         137.317         0.987348         137.314         0.157729        -132.616
60.95                   0.157873        -132.785         0.987465          137.28          0.98732         137.277         0.157909        -132.654
60.96                   0.158052        -132.823         0.987437         137.242         0.987292          137.24         0.158088        -132.691
60.97                   0.158232         -132.86         0.987408         137.205         0.987264         137.203         0.158268        -132.728
60.98                   0.158411        -132.897          0.98738         137.168         0.987236         137.165         0.158447        -132.765
60.99                    0.15859        -132.935         0.987351          137.13         0.987208         137.128         0.158627        -132.803
61                       0.15877        -132.972         0.987323         137.093         0.987179         137.091         0.158806         -132.84
61.01                   0.158949        -133.009         0.987294         137.056         0.987151         137.053         0.158985        -132.877
61.02                   0.159128        -133.047         0.987265         137.018         0.987123         137.016         0.159164        -132.914
61.03                   0.159307        -133.084         0.987237         136.981         0.987095         136.979         0.159344        -132.951
61.04                   0.159486        -133.121         0.987208         136.944         0.987066         136.942         0.159523        -132.989
61.05                   0.159666        -133.159         0.987179         136.906         0.987038         136.904         0.159702        -133.026
61.06                   0.159845        -133.196         0.987151         136.869          0.98701         136.867         0.159881        -133.063
61.07                   0.160024        -133.233         0.987122         136.832         0.986982          136.83          0.16006          -133.1
61.08                   0.160202        -133.271         0.987093         136.795         0.986953         136.792         0.160239        -133.138
61.09                   0.160381        -133.308         0.987064         136.757         0.986925         136.755         0.160418        -133.175
61.1                     0.16056        -133.345         0.987036          136.72         0.986897         136.718         0.160596        -133.212
61.11                   0.160739        -133.383         0.987007         136.683         0.986868         136.681         0.160775        -133.249
61.12                   0.160918         -133.42         0.986978         136.645          0.98684         136.643         0.160954        -133.287
61.13                   0.161096        -133.457         0.986949         136.608         0.986811         136.606         0.161133        -133.324
61.14                   0.161275        -133.494          0.98692         136.571         0.986783         136.569         0.161311        -133.361
61.15                   0.161454        -133.532         0.986891         136.533         0.986754         136.532          0.16149        -133.398
61.16                   0.161632        -133.569         0.986862         136.496         0.986726         136.494         0.161668        -133.436
61.17                   0.161811        -133.606         0.986833         136.459         0.986697         136.457         0.161847        -133.473
61.18                   0.161989        -133.644         0.986804         136.422         0.986669          136.42         0.162025         -133.51
61.19                   0.162168        -133.681         0.986775         136.384          0.98664         136.383         0.162204        -133.547
61.2                    0.162346        -133.718         0.986746         136.347         0.986612         136.346         0.162382        -133.585
61.21                   0.162524        -133.756         0.986717          136.31         0.986583         136.308          0.16256        -133.622
61.22                   0.162703        -133.793         0.986688         136.272         0.986555         136.271         0.162738        -133.659
61.23                   0.162881         -133.83         0.986659         136.235         0.986526         136.234         0.162917        -133.696
61.24                   0.163059        -133.868          0.98663         136.198         0.986497         136.197         0.163095        -133.733
61.25                   0.163237        -133.905         0.986601         136.161         0.986469         136.159         0.163273        -133.771
61.26                   0.163415        -133.942         0.986572         136.123          0.98644         136.122         0.163451        -133.808
61.27                   0.163593        -133.979         0.986543         136.086         0.986411         136.085         0.163629        -133.845
61.28                   0.163771        -134.017         0.986513         136.049         0.986382         136.048         0.163807        -133.882
61.29                   0.163949        -134.054         0.986484         136.012         0.986354         136.011         0.163985         -133.92
61.3                    0.164127        -134.091         0.986455         135.974         0.986325         135.973         0.164162        -133.957
61.31                   0.164305        -134.129         0.986426         135.937         0.986296         135.936          0.16434        -133.994
61.32                   0.164482        -134.166         0.986396           135.9         0.986267         135.899         0.164518        -134.031
61.33                    0.16466        -134.203         0.986367         135.862         0.986239         135.862         0.164696        -134.069
61.34                   0.164838        -134.241         0.986338         135.825          0.98621         135.825         0.164873        -134.106
61.35                   0.165015        -134.278         0.986308         135.788         0.986181         135.787         0.165051        -134.143
61.36                   0.165193        -134.315         0.986279         135.751         0.986152          135.75         0.165228         -134.18
61.37                    0.16537        -134.352         0.986249         135.713         0.986123         135.713         0.165406        -134.217
61.38                   0.165548         -134.39          0.98622         135.676         0.986094         135.676         0.165583        -134.255
61.39                   0.165725        -134.427         0.986191         135.639         0.986065         135.639          0.16576        -134.292
61.4                    0.165903        -134.464         0.986161         135.602         0.986036         135.602         0.165938        -134.329
61.41                    0.16608        -134.502         0.986132         135.564         0.986007         135.564         0.166115        -134.366
61.42                   0.166257        -134.539         0.986102         135.527         0.985978         135.527         0.166292        -134.404
61.43                   0.166434        -134.576         0.986073          135.49         0.985949          135.49         0.166469        -134.441
61.44                   0.166611        -134.613         0.986043         135.453          0.98592         135.453         0.166646        -134.478
61.45                   0.166789        -134.651         0.986013         135.416         0.985891         135.416         0.166823        -134.515
61.46                   0.166966        -134.688         0.985984         135.378         0.985862         135.378            0.167        -134.552
61.47                   0.167143        -134.725         0.985954         135.341         0.985833         135.341         0.167177         -134.59
61.48                   0.167319        -134.762         0.985925         135.304         0.985804         135.304         0.167354        -134.627
61.49                   0.167496          -134.8         0.985895         135.267         0.985774         135.267         0.167531        -134.664
61.5                    0.167673        -134.837         0.985865         135.229         0.985745          135.23         0.167708        -134.701
61.51                    0.16785        -134.874         0.985836         135.192         0.985716         135.193         0.167885        -134.739
61.52                   0.168027        -134.912         0.985806         135.155         0.985687         135.156         0.168061        -134.776
61.53                   0.168203        -134.949         0.985776         135.118         0.985657         135.118         0.168238        -134.813
61.54                    0.16838        -134.986         0.985746          135.08         0.985628         135.081         0.168414         -134.85
61.55                   0.168556        -135.023         0.985717         135.043         0.985599         135.044         0.168591        -134.887
61.56                   0.168733        -135.061         0.985687         135.006          0.98557         135.007         0.168767        -134.925
61.57                   0.168909        -135.098         0.985657         134.969          0.98554          134.97         0.168944        -134.962
61.58                   0.169086        -135.135         0.985627         134.932         0.985511         134.933          0.16912        -134.999
61.59                   0.169262        -135.172         0.985597         134.894         0.985481         134.896         0.169296        -135.036
61.6                    0.169438         -135.21         0.985567         134.857         0.985452         134.858         0.169472        -135.073
61.61                   0.169615        -135.247         0.985537          134.82         0.985423         134.821         0.169649        -135.111
61.62                   0.169791        -135.284         0.985507         134.783         0.985393         134.784         0.169825        -135.148
61.63                   0.169967        -135.321         0.985477         134.746         0.985364         134.747         0.170001        -135.185
61.64                   0.170143        -135.359         0.985447         134.708         0.985334          134.71         0.170177        -135.222
61.65                   0.170319        -135.396         0.985417         134.671         0.985305         134.673         0.170353        -135.259
61.66                   0.170495        -135.433         0.985387         134.634         0.985275         134.636         0.170529        -135.297
61.67                   0.170671         -135.47         0.985357         134.597         0.985245         134.599         0.170704        -135.334
61.68                   0.170847        -135.507         0.985327          134.56         0.985216         134.562          0.17088        -135.371
61.69                   0.171022        -135.545         0.985297         134.522         0.985186         134.524         0.171056        -135.408
61.7                    0.171198        -135.582         0.985267         134.485         0.985157         134.487         0.171232        -135.445
61.71                   0.171374        -135.619         0.985237         134.448         0.985127          134.45         0.171407        -135.483
61.72                    0.17155        -135.656         0.985207         134.411         0.985097         134.413         0.171583         -135.52
61.73                   0.171725        -135.694         0.985177         134.374         0.985068         134.376         0.171758        -135.557
61.74                   0.171901        -135.731         0.985146         134.337         0.985038         134.339         0.171934        -135.594
61.75                   0.172076        -135.768         0.985116         134.299         0.985008         134.302         0.172109        -135.631
61.76                   0.172251        -135.805         0.985086         134.262         0.984978         134.265         0.172284        -135.668
61.77                   0.172427        -135.842         0.985056         134.225         0.984949         134.228          0.17246        -135.706
61.78                   0.172602         -135.88         0.985025         134.188         0.984919         134.191         0.172635        -135.743
61.79                   0.172777        -135.917         0.984995         134.151         0.984889         134.154          0.17281         -135.78
61.8                    0.172952        -135.954         0.984965         134.114         0.984859         134.116         0.172985        -135.817
61.81                   0.173128        -135.991         0.984934         134.076         0.984829         134.079          0.17316        -135.854
61.82                   0.173303        -136.029         0.984904         134.039         0.984799         134.042         0.173335        -135.892
61.83                   0.173478        -136.066         0.984874         134.002         0.984769         134.005          0.17351        -135.929
61.84                   0.173653        -136.103         0.984843         133.965         0.984739         133.968         0.173685        -135.966
61.85                   0.173827         -136.14         0.984813         133.928         0.984709         133.931          0.17386        -136.003
61.86                   0.174002        -136.177         0.984782         133.891         0.984679         133.894         0.174034         -136.04
61.87                   0.174177        -136.215         0.984752         133.853         0.984649         133.857         0.174209        -136.077
61.88                   0.174352        -136.252         0.984721         133.816         0.984619          133.82         0.174384        -136.115
61.89                   0.174526        -136.289         0.984691         133.779         0.984589         133.783         0.174558        -136.152
61.9                    0.174701        -136.326          0.98466         133.742         0.984559         133.746         0.174733        -136.189
61.91                   0.174876        -136.363          0.98463         133.705         0.984529         133.709         0.174907        -136.226
61.92                    0.17505          -136.4         0.984599         133.668         0.984499         133.672         0.175082        -136.263
61.93                   0.175224        -136.438         0.984569         133.631         0.984469         133.635         0.175256          -136.3
61.94                   0.175399        -136.475         0.984538         133.594         0.984439         133.598          0.17543        -136.337
61.95                   0.175573        -136.512         0.984507         133.556         0.984409         133.561         0.175605        -136.375
61.96                   0.175747        -136.549         0.984477         133.519         0.984378         133.523         0.175779        -136.412