! TOUCHSTONE file generated by CST MICROWAVE STUDIO
! Date and time: Tue Feb 27 23:06:30 2024
! Project name: material_angular.cst
! Parameters = {Yi=2; iiii=5; exis2=5; exis=5; X=5; Z=5; Y=2}
! Header version: 2018
! Port assignment regex: !\s*Touchstone port\s*([0-9]+)\s*=\s*(CST MWS port|CST DS port)\s*([0-9]+|Zmin|Zmax)\s*\(\"(.*)\"\)(\s*mode\s*([0-9]+))?.*
! Touchstone port assignment:
! Touchstone port 1 = CST MWS port 1 ("")
! Touchstone port 2 = CST MWS port 2 ("")
# GHz S MA R 376.7
60                      0.129135         -138.37         0.991574         156.212         0.992145         156.244         0.129033        -89.4814
60.01                   0.129322        -138.416         0.991563         156.177          0.99214         156.207         0.129243        -89.4872
60.02                   0.129509        -138.462         0.991551         156.141         0.992134         156.171         0.129453        -89.4942
60.03                   0.129696        -138.507         0.991539         156.105         0.992128         156.134         0.129663        -89.5023
60.04                   0.129882        -138.553         0.991526         156.069         0.992121         156.098         0.129872        -89.5114
60.05                   0.130069        -138.598         0.991514         156.033         0.992115         156.061         0.130081        -89.5215
60.06                   0.130255        -138.644         0.991502         155.997         0.992108         156.025          0.13029        -89.5326
60.07                   0.130442        -138.689         0.991489         155.962           0.9921         155.988         0.130498        -89.5446
60.08                   0.130628        -138.735         0.991476         155.926         0.992092         155.952         0.130705        -89.5574
60.09                   0.130814         -138.78         0.991463          155.89         0.992084         155.915         0.130912         -89.571
60.1                       0.131        -138.825          0.99145         155.854         0.992075         155.879         0.131118        -89.5855
60.11                   0.131186         -138.87         0.991437         155.818         0.992066         155.842         0.131324        -89.6007
60.12                   0.131372        -138.915         0.991424         155.782         0.992057         155.805         0.131529        -89.6166
60.13                   0.131557         -138.96         0.991411         155.746         0.992047         155.769         0.131733        -89.6332
60.14                   0.131743        -139.005         0.991397         155.711         0.992036         155.732         0.131937        -89.6505
60.15                   0.131928         -139.05         0.991384         155.675         0.992026         155.695          0.13214        -89.6684
60.16                   0.132114        -139.094          0.99137         155.639         0.992014         155.659         0.132343        -89.6869
60.17                   0.132299        -139.139         0.991356         155.603         0.992002         155.622         0.132545        -89.7059
60.18                   0.132484        -139.184         0.991342         155.567          0.99199         155.585         0.132746        -89.7255
60.19                   0.132669        -139.228         0.991327         155.531         0.991977         155.549         0.132946        -89.7456
60.2                    0.132854        -139.272         0.991313         155.495         0.991964         155.512         0.133146        -89.7663
60.21                   0.133039        -139.317         0.991298         155.459          0.99195         155.475         0.133346        -89.7874
60.22                   0.133223        -139.361         0.991283         155.424         0.991935         155.438         0.133544        -89.8089
60.23                   0.133408        -139.405         0.991268         155.388          0.99192         155.402         0.133742        -89.8309
60.24                   0.133592         -139.45         0.991253         155.352         0.991904         155.365         0.133939        -89.8533
60.25                   0.133777        -139.494         0.991238         155.316         0.991888         155.328         0.134136        -89.8761
60.26                   0.133961        -139.538         0.991222          155.28         0.991871         155.291         0.134332        -89.8992
60.27                   0.134145        -139.582         0.991207         155.244         0.991854         155.255         0.134528        -89.9228
60.28                   0.134329        -139.625         0.991191         155.208         0.991836         155.218         0.134722        -89.9466
60.29                   0.134513        -139.669         0.991175         155.172         0.991817         155.181         0.134917        -89.9708
60.3                    0.134697        -139.713         0.991158         155.136         0.991798         155.144          0.13511        -89.9953
60.31                    0.13488        -139.757         0.991142           155.1         0.991778         155.108         0.135303        -90.0201
60.32                   0.135064          -139.8         0.991125         155.064         0.991757         155.071         0.135496        -90.0452
60.33                   0.135247        -139.844         0.991108         155.028         0.991736         155.034         0.135688        -90.0705
60.34                    0.13543        -139.888         0.991091         154.992         0.991714         154.997         0.135879        -90.0962
60.35                   0.135614        -139.931         0.991073         154.957         0.991692         154.961          0.13607         -90.122
60.36                   0.135797        -139.974         0.991056         154.921         0.991669         154.924          0.13626        -90.1481
60.37                    0.13598        -140.018         0.991038         154.885         0.991645         154.887          0.13645        -90.1745
60.38                   0.136163        -140.061          0.99102         154.849         0.991621          154.85         0.136639         -90.201
60.39                   0.136345        -140.104         0.991001         154.813         0.991596         154.814         0.136828        -90.2277
60.4                    0.136528        -140.147         0.990983         154.777          0.99157         154.777         0.137016        -90.2547
60.41                   0.136711         -140.19         0.990964         154.741         0.991544          154.74         0.137203        -90.2818
60.42                   0.136893        -140.233         0.990945         154.705         0.991517         154.704         0.137391        -90.3092
60.43                   0.137076        -140.276         0.990925         154.669          0.99149         154.667         0.137577        -90.3367
60.44                   0.137258        -140.319         0.990906         154.633         0.991462          154.63         0.137764        -90.3643
60.45                    0.13744        -140.362         0.990886         154.597         0.991434         154.594          0.13795        -90.3921
60.46                   0.137622        -140.405         0.990865         154.561         0.991404         154.557         0.138135        -90.4201
60.47                   0.137804        -140.448         0.990845         154.525         0.991375         154.521          0.13832        -90.4482
60.48                   0.137986         -140.49         0.990824         154.489         0.991345         154.484         0.138504        -90.4765
60.49                   0.138167        -140.533         0.990803         154.453         0.991314         154.448         0.138688        -90.5049
60.5                    0.138349        -140.576         0.990782         154.417         0.991283         154.411         0.138872        -90.5334
60.51                   0.138531        -140.618          0.99076         154.381         0.991251         154.375         0.139055        -90.5621
60.52                   0.138712        -140.661         0.990738         154.345         0.991219         154.338         0.139238        -90.5908
60.53                   0.138893        -140.703         0.990716          154.31         0.991186         154.302         0.139421        -90.6197
60.54                   0.139074        -140.745         0.990694         154.274         0.991153         154.265         0.139603        -90.6487
60.55                   0.139255        -140.788         0.990671         154.238         0.991119         154.229         0.139785        -90.6778
60.56                   0.139436         -140.83         0.990648         154.202         0.991085         154.193         0.139966         -90.707
60.57                   0.139617        -140.872         0.990625         154.166         0.991051         154.156         0.140147        -90.7363
60.58                   0.139798        -140.914         0.990601          154.13         0.991016          154.12         0.140328        -90.7657
60.59                   0.139979        -140.956         0.990577         154.094         0.990981         154.084         0.140508        -90.7951
60.6                    0.140159        -140.998         0.990553         154.058         0.990945         154.048         0.140688        -90.8247
60.61                    0.14034         -141.04         0.990529         154.022         0.990909         154.011         0.140868        -90.8543
60.62                    0.14052        -141.082         0.990504         153.986         0.990873         153.975         0.141048        -90.8841
60.63                     0.1407        -141.124         0.990479          153.95         0.990836         153.939         0.141227        -90.9138
60.64                   0.140881        -141.166         0.990453         153.915           0.9908         153.903         0.141405        -90.9437
60.65                   0.141061        -141.207         0.990428         153.879         0.990763         153.867         0.141584        -90.9736
60.66                   0.141241        -141.249         0.990402         153.843         0.990725         153.831         0.141762        -91.0036
60.67                   0.141421        -141.291         0.990375         153.807         0.990688         153.795          0.14194        -91.0337
60.68                     0.1416        -141.332         0.990349         153.771          0.99065         153.759         0.142118        -91.0638
60.69                    0.14178        -141.374         0.990322         153.735         0.990612         153.723         0.142295         -91.094
60.7                     0.14196        -141.416         0.990295         153.699         0.990574         153.687         0.142472        -91.1243
60.71                   0.142139        -141.457         0.990268         153.664         0.990536         153.651         0.142649        -91.1546
60.72                   0.142318        -141.498          0.99024         153.628         0.990498         153.615         0.142826        -91.1849
60.73                   0.142498         -141.54         0.990212         153.592         0.990459          153.58         0.143002        -91.2153
60.74                   0.142677        -141.581         0.990184         153.556         0.990421         153.544         0.143178        -91.2458
60.75                   0.142856        -141.622         0.990156         153.521         0.990382         153.508         0.143354        -91.2763
60.76                   0.143035        -141.663         0.990127         153.485         0.990344         153.472          0.14353        -91.3068
60.77                   0.143214        -141.705         0.990098         153.449         0.990305         153.437         0.143706        -91.3374
60.78                   0.143392        -141.746         0.990069         153.413         0.990266         153.401         0.143881        -91.3681
60.79                   0.143571        -141.787          0.99004         153.378         0.990227         153.365         0.144056        -91.3988
60.8                     0.14375        -141.828          0.99001         153.342         0.990189          153.33         0.144231        -91.4295
60.81                   0.143928        -141.869         0.989981         153.306          0.99015         153.294         0.144405        -91.4602
60.82                   0.144107         -141.91         0.989951         153.271         0.990111         153.259          0.14458         -91.491
60.83                   0.144285        -141.951         0.989921         153.235         0.990073         153.223         0.144754        -91.5219
60.84                   0.144463        -141.991          0.98989         153.199         0.990034         153.188         0.144928        -91.5527
60.85                   0.144641        -142.032          0.98986         153.164         0.989995         153.152         0.145102        -91.5836
60.86                   0.144819        -142.073         0.989829         153.128         0.989957         153.117         0.145275        -91.6146
60.87                   0.144997        -142.114         0.989798         153.092         0.989918         153.081         0.145449        -91.6455
60.88                   0.145175        -142.154         0.989767         153.057          0.98988         153.046         0.145622        -91.6765
60.89                   0.145352        -142.195         0.989736         153.021         0.989842          153.01         0.145795        -91.7076
60.9                     0.14553        -142.235         0.989704         152.986         0.989804         152.975         0.145968        -91.7386
60.91                   0.145708        -142.276         0.989673          152.95         0.989766          152.94         0.146141        -91.7697
60.92                   0.145885        -142.316         0.989641         152.915         0.989728         152.904         0.146314        -91.8008
60.93                   0.146062        -142.357         0.989609         152.879          0.98969         152.869         0.146486        -91.8319
60.94                    0.14624        -142.397         0.989577         152.844         0.989652         152.834         0.146658        -91.8631
60.95                   0.146417        -142.438         0.989545         152.808         0.989615         152.799         0.146831        -91.8943
60.96                   0.146594        -142.478         0.989513         152.773         0.989577         152.763         0.147003        -91.9255
60.97                   0.146771        -142.518         0.989481         152.737          0.98954         152.728         0.147175        -91.9567
60.98                   0.146948        -142.558         0.989449         152.702         0.989503         152.693         0.147346         -91.988
60.99                   0.147124        -142.598         0.989416         152.667         0.989466         152.658         0.147518        -92.0193
61                      0.147301        -142.639         0.989384         152.631         0.989429         152.623         0.147689        -92.0506
61.01                   0.147478        -142.679         0.989352         152.596         0.989393         152.588         0.147861        -92.0819
61.02                   0.147654        -142.719         0.989319         152.561         0.989356         152.553         0.148032        -92.1133
61.03                   0.147831        -142.759         0.989286         152.525          0.98932         152.517         0.148203        -92.1446
61.04                   0.148007        -142.799         0.989254          152.49         0.989284         152.482         0.148374         -92.176
61.05                   0.148183        -142.839         0.989221         152.455         0.989248         152.447         0.148545        -92.2074
61.06                   0.148359        -142.878         0.989188         152.419         0.989212         152.412         0.148715        -92.2388
61.07                   0.148535        -142.918         0.989156         152.384         0.989176         152.377         0.148886        -92.2703
61.08                   0.148711        -142.958         0.989123         152.349         0.989141         152.342         0.149057        -92.3017
61.09                   0.148887        -142.998          0.98909         152.314         0.989106         152.307         0.149227        -92.3332
61.1                    0.149063        -143.037         0.989058         152.278          0.98907         152.272         0.149397        -92.3647
61.11                   0.149239        -143.077         0.989025         152.243         0.989035         152.237         0.149567        -92.3962
61.12                   0.149414        -143.117         0.988992         152.208         0.989001         152.202         0.149737        -92.4277
61.13                    0.14959        -143.156          0.98896         152.173         0.988966         152.167         0.149907        -92.4593
61.14                   0.149765        -143.196         0.988927         152.138         0.988932         152.132         0.150077        -92.4908
61.15                   0.149941        -143.235         0.988894         152.103         0.988897         152.097         0.150247        -92.5224
61.16                   0.150116        -143.275         0.988862         152.067         0.988863         152.062         0.150417         -92.554
61.17                   0.150291        -143.314         0.988829         152.032         0.988829         152.028         0.150586        -92.5856
61.18                   0.150466        -143.354         0.988797         151.997         0.988796         151.993         0.150756        -92.6172
61.19                   0.150641        -143.393         0.988764         151.962         0.988762         151.958         0.150925        -92.6488
61.2                    0.150816        -143.432         0.988732         151.927         0.988729         151.923         0.151094        -92.6805
61.21                   0.150991        -143.472           0.9887         151.892         0.988695         151.888         0.151264        -92.7121
61.22                   0.151166        -143.511         0.988667         151.857         0.988662         151.853         0.151433        -92.7438
61.23                   0.151341         -143.55         0.988635         151.822         0.988629         151.818         0.151602        -92.7755
61.24                   0.151515        -143.589         0.988603         151.787         0.988596         151.783         0.151771        -92.8072
61.25                    0.15169        -143.629         0.988571         151.752         0.988564         151.748          0.15194        -92.8389
61.26                   0.151864        -143.668         0.988539         151.717         0.988531         151.714         0.152108        -92.8706
61.27                   0.152039        -143.707         0.988507         151.682         0.988499         151.679         0.152277        -92.9024
61.28                   0.152213        -143.746         0.988475         151.647         0.988466         151.644         0.152446        -92.9341
61.29                   0.152387        -143.785         0.988443         151.612         0.988434         151.609         0.152614        -92.9659
61.3                    0.152561        -143.824         0.988411         151.577         0.988402         151.574         0.152783        -92.9976
61.31                   0.152735        -143.863          0.98838         151.542         0.988371         151.539         0.152951        -93.0294
61.32                   0.152909        -143.902         0.988348         151.507         0.988339         151.505          0.15312        -93.0612
61.33                   0.153083         -143.94         0.988317         151.472         0.988307          151.47         0.153288         -93.093
61.34                   0.153257        -143.979         0.988285         151.437         0.988276         151.435         0.153456        -93.1248
61.35                    0.15343        -144.018         0.988254         151.402         0.988245           151.4         0.153625        -93.1567
61.36                   0.153604        -144.057         0.988223         151.367         0.988213         151.365         0.153793        -93.1885
61.37                   0.153778        -144.096         0.988192         151.332         0.988182         151.331         0.153961        -93.2204
61.38                   0.153951        -144.134         0.988161         151.297         0.988151         151.296         0.154129        -93.2522
61.39                   0.154125        -144.173          0.98813         151.263         0.988121         151.261         0.154297        -93.2841
61.4                    0.154298        -144.212         0.988099         151.228          0.98809         151.226         0.154465         -93.316
61.41                   0.154471         -144.25         0.988068         151.193         0.988059         151.191         0.154632        -93.3479
61.42                   0.154644        -144.289         0.988037         151.158         0.988029         151.157           0.1548        -93.3798
61.43                   0.154817        -144.327         0.988007         151.123         0.987998         151.122         0.154968        -93.4117
61.44                    0.15499        -144.366         0.987976         151.088         0.987968         151.087         0.155136        -93.4436
61.45                   0.155163        -144.404         0.987946         151.053         0.987938         151.052         0.155303        -93.4756
61.46                   0.155336        -144.443         0.987915         151.018         0.987908         151.017         0.155471        -93.5075
61.47                   0.155509        -144.481         0.987885         150.984         0.987878         150.983         0.155638        -93.5395
61.48                   0.155682        -144.519         0.987855         150.949         0.987848         150.948         0.155806        -93.5715
61.49                   0.155854        -144.558         0.987825         150.914         0.987818         150.913         0.155973        -93.6034
61.5                    0.156027        -144.596         0.987795         150.879         0.987788         150.878         0.156141        -93.6354
61.51                   0.156199        -144.634         0.987765         150.844         0.987758         150.844         0.156308        -93.6674
61.52                   0.156372        -144.672         0.987735         150.809         0.987729         150.809         0.156475        -93.6994
61.53                   0.156544        -144.711         0.987705         150.775         0.987699         150.774         0.156643        -93.7315
61.54                   0.156716        -144.749         0.987675          150.74          0.98767         150.739          0.15681        -93.7635
61.55                   0.156889        -144.787         0.987645         150.705          0.98764         150.704         0.156977        -93.7955
61.56                   0.157061        -144.825         0.987616          150.67         0.987611          150.67         0.157144        -93.8276
61.57                   0.157233        -144.863         0.987586         150.635         0.987582         150.635         0.157311        -93.8596
61.58                   0.157405        -144.901         0.987557         150.601         0.987553           150.6         0.157478        -93.8917
61.59                   0.157577        -144.939         0.987527         150.566         0.987524         150.565         0.157645        -93.9238
61.6                    0.157748        -144.977         0.987498         150.531         0.987494         150.531         0.157812        -93.9559
61.61                    0.15792        -145.015         0.987469         150.496         0.987466         150.496         0.157979         -93.988
61.62                   0.158092        -145.053          0.98744         150.461         0.987437         150.461         0.158146        -94.0201
61.63                   0.158263        -145.091          0.98741         150.427         0.987408         150.426         0.158313        -94.0522
61.64                   0.158435        -145.129         0.987381         150.392         0.987379         150.392          0.15848        -94.0843
61.65                   0.158607        -145.167         0.987352         150.357          0.98735         150.357         0.158647        -94.1165
61.66                   0.158778        -145.205         0.987323         150.322         0.987321         150.322         0.158813        -94.1486
61.67                   0.158949        -145.242         0.987294         150.287         0.987293         150.287          0.15898        -94.1808
61.68                   0.159121         -145.28         0.987265         150.253         0.987264         150.252         0.159147        -94.2129
61.69                   0.159292        -145.318         0.987237         150.218         0.987236         150.218         0.159314        -94.2451
61.7                    0.159463        -145.356         0.987208         150.183         0.987207         150.183          0.15948        -94.2773
61.71                   0.159634        -145.393         0.987179         150.148         0.987178         150.148         0.159647        -94.3095
61.72                   0.159805        -145.431          0.98715         150.113          0.98715         150.113         0.159814        -94.3417
61.73                   0.159976        -145.469         0.987122         150.079         0.987122         150.079          0.15998        -94.3739
61.74                   0.160147        -145.506         0.987093         150.044         0.987093         150.044         0.160147        -94.4061
61.75                   0.160318        -145.544         0.987065         150.009         0.987065         150.009         0.160313        -94.4384
61.76                   0.160488        -145.581         0.987036         149.974         0.987037         149.974          0.16048        -94.4706
61.77                   0.160659        -145.619         0.987008          149.94         0.987008          149.94         0.160646        -94.5029
61.78                    0.16083        -145.656         0.986979         149.905          0.98698         149.905         0.160813        -94.5351
61.79                      0.161        -145.694         0.986951          149.87         0.986952          149.87         0.160979        -94.5674
61.8                    0.161171        -145.731         0.986922         149.835         0.986923         149.835         0.161146        -94.5997
61.81                   0.161341        -145.769         0.986894           149.8         0.986895           149.8         0.161312         -94.632
61.82                   0.161512        -145.806         0.986866         149.766         0.986867         149.766         0.161479        -94.6643
61.83                   0.161682        -145.843         0.986837         149.731         0.986839         149.731         0.161645        -94.6966
61.84                   0.161852        -145.881         0.986809         149.696         0.986811         149.696         0.161812        -94.7289
61.85                   0.162022        -145.918         0.986781         149.661         0.986783         149.661         0.161978        -94.7613
61.86                   0.162193        -145.955         0.986753         149.626         0.986755         149.627         0.162145        -94.7936
61.87                   0.162363        -145.992         0.986724         149.592         0.986727         149.592         0.162311         -94.826
61.88                   0.162533         -146.03         0.986696         149.557         0.986698         149.557         0.162477        -94.8583
61.89                   0.162703        -146.067         0.986668         149.522          0.98667         149.522         0.162644        -94.8907
61.9                    0.162873        -146.104          0.98664         149.487         0.986642         149.487          0.16281        -94.9231
61.91                   0.163042        -146.141         0.986612         149.453         0.986614         149.453         0.162976        -94.9555
61.92                   0.163212        -146.178         0.986584         149.418         0.986586         149.418         0.163143        -94.9879
61.93                   0.163382        -146.215         0.986556         149.383         0.986558         149.383         0.163309        -95.0203
61.94                   0.163552        -146.252         0.986528         149.348          0.98653         149.348         0.163476        -95.0528
61.95                   0.163721        -146.289           0.9865         149.313         0.986502         149.314         0.163642        -95.0852
61.96                   0.163891        -146.326         0.986471         149.279         0.986474         149.279         0.163808        -95.1177