! TOUCHSTONE file generated by CST MICROWAVE STUDIO
! Date and time: Tue Feb 27 21:04:15 2024
! Project name: material_angular.cst
! Parameters = {exis2=0; exis=5; X=5; Z=5; Y=2}
! Header version: 2018
! Port assignment regex: !\s*Touchstone port\s*([0-9]+)\s*=\s*(CST MWS port|CST DS port)\s*([0-9]+|Zmin|Zmax)\s*\(\"(.*)\"\)(\s*mode\s*([0-9]+))?.*
! Touchstone port assignment:
! Touchstone port 1 = CST MWS port 1 ("")
! Touchstone port 2 = CST MWS port 2 ("")
# GHz S MA R 376.7
60                      0.140597        -114.838          0.99005         155.245          0.98992         155.252         0.140639        -114.669
60.01                   0.140781        -114.873         0.990023          155.21         0.989889         155.217         0.140823        -114.704
60.02                   0.140965        -114.907         0.989995         155.174         0.989859         155.182         0.141007        -114.739
60.03                    0.14115        -114.941         0.989967         155.139         0.989828         155.147         0.141191        -114.774
60.04                   0.141334        -114.976          0.98994         155.104         0.989798         155.112         0.141375        -114.808
60.05                   0.141518         -115.01         0.989912         155.068         0.989767         155.077         0.141559        -114.843
60.06                   0.141702        -115.044         0.989885         155.033         0.989737         155.041         0.141743        -114.878
60.07                   0.141886        -115.079         0.989857         154.997         0.989707         155.006         0.141926        -114.913
60.08                    0.14207        -115.113          0.98983         154.962         0.989676         154.971          0.14211        -114.948
60.09                   0.142254        -115.147         0.989802         154.927         0.989646         154.936         0.142294        -114.982
60.1                    0.142437        -115.182         0.989775         154.891         0.989616         154.901         0.142477        -115.017
60.11                   0.142621        -115.216         0.989747         154.856         0.989586         154.865         0.142661        -115.052
60.12                   0.142805         -115.25         0.989719         154.821         0.989556          154.83         0.142844        -115.087
60.13                   0.142989        -115.285         0.989692         154.785         0.989526         154.795         0.143028        -115.122
60.14                   0.143172        -115.319         0.989664          154.75         0.989496          154.76         0.143211        -115.157
60.15                   0.143356        -115.354         0.989636         154.715         0.989466         154.725         0.143395        -115.191
60.16                    0.14354        -115.388         0.989609         154.679         0.989436          154.69         0.143578        -115.226
60.17                   0.143723        -115.422         0.989581         154.644         0.989406         154.654         0.143761        -115.261
60.18                   0.143907        -115.457         0.989554         154.609         0.989376         154.619         0.143945        -115.296
60.19                    0.14409        -115.491         0.989526         154.573         0.989346         154.584         0.144128        -115.331
60.2                    0.144274        -115.526         0.989498         154.538         0.989316         154.549         0.144311        -115.366
60.21                   0.144457         -115.56         0.989471         154.503         0.989286         154.514         0.144494        -115.401
60.22                    0.14464        -115.595         0.989443         154.468         0.989257         154.479         0.144677        -115.435
60.23                   0.144824        -115.629         0.989415         154.432         0.989227         154.444         0.144861         -115.47
60.24                   0.145007        -115.663         0.989387         154.397         0.989197         154.408         0.145044        -115.505
60.25                    0.14519        -115.698          0.98936         154.362         0.989168         154.373         0.145227         -115.54
60.26                   0.145373        -115.732         0.989332         154.326         0.989138         154.338          0.14541        -115.575
60.27                   0.145557        -115.767         0.989304         154.291         0.989108         154.303         0.145592         -115.61
60.28                    0.14574        -115.801         0.989276         154.256         0.989079         154.268         0.145775        -115.645
60.29                   0.145923        -115.836         0.989249         154.221         0.989049         154.233         0.145958         -115.68
60.3                    0.146106         -115.87         0.989221         154.185          0.98902         154.198         0.146141        -115.715
60.31                   0.146289        -115.905         0.989193          154.15          0.98899         154.163         0.146324         -115.75
60.32                   0.146472        -115.939         0.989165         154.115         0.988961         154.127         0.146507        -115.784
60.33                   0.146654        -115.974         0.989138          154.08         0.988931         154.092         0.146689        -115.819
60.34                   0.146837        -116.008          0.98911         154.044         0.988902         154.057         0.146872        -115.854
60.35                    0.14702        -116.043         0.989082         154.009         0.988873         154.022         0.147054        -115.889
60.36                   0.147203        -116.077         0.989054         153.974         0.988843         153.987         0.147237        -115.924
60.37                   0.147385        -116.111         0.989026         153.939         0.988814         153.952          0.14742        -115.959
60.38                   0.147568        -116.146         0.988998         153.903         0.988785         153.917         0.147602        -115.994
60.39                   0.147751        -116.181          0.98897         153.868         0.988756         153.882         0.147784        -116.029
60.4                    0.147933        -116.215         0.988943         153.833         0.988727         153.847         0.147967        -116.064
60.41                   0.148116         -116.25         0.988915         153.798         0.988697         153.811         0.148149        -116.099
60.42                   0.148298        -116.284         0.988887         153.763         0.988668         153.776         0.148331        -116.134
60.43                   0.148481        -116.319         0.988859         153.727         0.988639         153.741         0.148514        -116.169
60.44                   0.148663        -116.353         0.988831         153.692          0.98861         153.706         0.148696        -116.204
60.45                   0.148845        -116.388         0.988803         153.657         0.988581         153.671         0.148878        -116.239
60.46                   0.149028        -116.422         0.988775         153.622         0.988552         153.636          0.14906        -116.274
60.47                    0.14921        -116.457         0.988747         153.587         0.988523         153.601         0.149242        -116.309
60.48                   0.149392        -116.491         0.988719         153.551         0.988494         153.566         0.149424        -116.344
60.49                   0.149574        -116.526         0.988691         153.516         0.988465         153.531         0.149606        -116.379
60.5                    0.149756         -116.56         0.988663         153.481         0.988436         153.496         0.149788        -116.413
60.51                   0.149938        -116.595         0.988635         153.446         0.988407         153.461          0.14997        -116.448
60.52                    0.15012        -116.629         0.988607         153.411         0.988378         153.426         0.150152        -116.483
60.53                   0.150302        -116.664         0.988579         153.376         0.988349         153.391         0.150334        -116.518
60.54                   0.150484        -116.699         0.988551          153.34         0.988321         153.356         0.150516        -116.553
60.55                   0.150666        -116.733         0.988523         153.305         0.988292          153.32         0.150697        -116.588
60.56                   0.150848        -116.768         0.988494          153.27         0.988263         153.285         0.150879        -116.623
60.57                   0.151029        -116.802         0.988466         153.235         0.988234          153.25         0.151061        -116.658
60.58                   0.151211        -116.837         0.988438           153.2         0.988206         153.215         0.151242        -116.693
60.59                   0.151393        -116.871          0.98841         153.165         0.988177          153.18         0.151424        -116.728
60.6                    0.151574        -116.906         0.988382          153.13         0.988148         153.145         0.151605        -116.763
60.61                   0.151756        -116.941         0.988354         153.094         0.988119          153.11         0.151787        -116.798
60.62                   0.151937        -116.975         0.988326         153.059         0.988091         153.075         0.151968        -116.833
60.63                   0.152119         -117.01         0.988297         153.024         0.988062          153.04          0.15215        -116.868
60.64                     0.1523        -117.044         0.988269         152.989         0.988033         153.005         0.152331        -116.903
60.65                   0.152482        -117.079         0.988241         152.954         0.988005          152.97         0.152512        -116.938
60.66                   0.152663        -117.113         0.988213         152.919         0.987976         152.935         0.152693        -116.973
60.67                   0.152844        -117.148         0.988184         152.884         0.987948           152.9         0.152875        -117.008
60.68                   0.153026        -117.183         0.988156         152.849         0.987919         152.865         0.153056        -117.043
60.69                   0.153207        -117.217         0.988128         152.813          0.98789          152.83         0.153237        -117.078
60.7                    0.153388        -117.252           0.9881         152.778         0.987862         152.795         0.153418        -117.113
60.71                   0.153569        -117.287         0.988071         152.743         0.987833          152.76         0.153599        -117.149
60.72                    0.15375        -117.321         0.988043         152.708         0.987805         152.725          0.15378        -117.184
60.73                   0.153931        -117.356         0.988015         152.673         0.987776          152.69         0.153961        -117.219
60.74                   0.154112         -117.39         0.987986         152.638         0.987748         152.655         0.154141        -117.254
60.75                   0.154293        -117.425         0.987958         152.603         0.987719          152.62         0.154322        -117.289
60.76                   0.154473         -117.46         0.987929         152.568         0.987691         152.585         0.154503        -117.324
60.77                   0.154654        -117.494         0.987901         152.533         0.987662          152.55         0.154684        -117.359
60.78                   0.154835        -117.529         0.987873         152.498         0.987634         152.515         0.154864        -117.394
60.79                   0.155016        -117.563         0.987844         152.463         0.987606          152.48         0.155045        -117.429
60.8                    0.155196        -117.598         0.987816         152.428         0.987577         152.445         0.155225        -117.464
60.81                   0.155377        -117.633         0.987787         152.393         0.987549          152.41         0.155406        -117.499
60.82                   0.155557        -117.667         0.987759         152.357          0.98752         152.375         0.155586        -117.534
60.83                   0.155738        -117.702          0.98773         152.322         0.987492          152.34         0.155767        -117.569
60.84                   0.155918        -117.737         0.987702         152.287         0.987464         152.305         0.155947        -117.604
60.85                   0.156098        -117.771         0.987673         152.252         0.987435          152.27         0.156127        -117.639
60.86                   0.156279        -117.806         0.987645         152.217         0.987407         152.235         0.156308        -117.674
60.87                   0.156459        -117.841         0.987616         152.182         0.987378           152.2         0.156488        -117.709
60.88                   0.156639        -117.875         0.987587         152.147          0.98735         152.165         0.156668        -117.744
60.89                   0.156819         -117.91         0.987559         152.112         0.987322          152.13         0.156848        -117.779
60.9                    0.156999        -117.945          0.98753         152.077         0.987293         152.095         0.157028        -117.814
60.91                   0.157179        -117.979         0.987502         152.042         0.987265         152.061         0.157208        -117.849
60.92                   0.157359        -118.014         0.987473         152.007         0.987237         152.026         0.157388        -117.884
60.93                   0.157539        -118.048         0.987444         151.972         0.987208         151.991         0.157568        -117.919
60.94                   0.157719        -118.083         0.987416         151.937          0.98718         151.956         0.157748        -117.954
60.95                   0.157899        -118.118         0.987387         151.902         0.987152         151.921         0.157928         -117.99
60.96                   0.158079        -118.152         0.987358         151.867         0.987124         151.886         0.158107        -118.025
60.97                   0.158259        -118.187         0.987329         151.832         0.987095         151.851         0.158287         -118.06
60.98                   0.158438        -118.222         0.987301         151.797         0.987067         151.816         0.158467        -118.095
60.99                   0.158618        -118.256         0.987272         151.762         0.987039         151.781         0.158646         -118.13
61                      0.158797        -118.291         0.987243         151.727          0.98701         151.746         0.158826        -118.165
61.01                   0.158977        -118.326         0.987214         151.692         0.986982         151.711         0.159005          -118.2
61.02                   0.159156         -118.36         0.987185         151.657         0.986954         151.676         0.159185        -118.235
61.03                   0.159336        -118.395         0.987157         151.622         0.986925         151.641         0.159364         -118.27
61.04                   0.159515         -118.43         0.987128         151.587         0.986897         151.607         0.159544        -118.305
61.05                   0.159694        -118.464         0.987099         151.552         0.986869         151.572         0.159723         -118.34
61.06                   0.159874        -118.499          0.98707         151.517         0.986841         151.537         0.159902        -118.375
61.07                   0.160053        -118.534         0.987041         151.482         0.986812         151.502         0.160081         -118.41
61.08                   0.160232        -118.568         0.987012         151.447         0.986784         151.467          0.16026        -118.445
61.09                   0.160411        -118.603         0.986983         151.412         0.986756         151.432         0.160439         -118.48
61.1                     0.16059        -118.638         0.986954         151.377         0.986727         151.397         0.160618        -118.516
61.11                   0.160769        -118.673         0.986925         151.342         0.986699         151.362         0.160797        -118.551
61.12                   0.160948        -118.707         0.986896         151.308         0.986671         151.328         0.160976        -118.586
61.13                   0.161127        -118.742         0.986867         151.273         0.986643         151.293         0.161155        -118.621
61.14                   0.161306        -118.777         0.986838         151.238         0.986614         151.258         0.161334        -118.656
61.15                   0.161484        -118.811         0.986809         151.203         0.986586         151.223         0.161513        -118.691
61.16                   0.161663        -118.846          0.98678         151.168         0.986558         151.188         0.161691        -118.726
61.17                   0.161842        -118.881         0.986751         151.133         0.986529         151.153          0.16187        -118.761
61.18                    0.16202        -118.915         0.986722         151.098         0.986501         151.118         0.162049        -118.796
61.19                   0.162199         -118.95         0.986693         151.063         0.986473         151.083         0.162227        -118.831
61.2                    0.162377        -118.985         0.986663         151.028         0.986444         151.049         0.162406        -118.866
61.21                   0.162556        -119.019         0.986634         150.993         0.986416         151.014         0.162584        -118.901
61.22                   0.162734        -119.054         0.986605         150.958         0.986388         150.979         0.162762        -118.936
61.23                   0.162912        -119.089         0.986576         150.923         0.986359         150.944         0.162941        -118.971
61.24                   0.163091        -119.123         0.986547         150.888         0.986331         150.909         0.163119        -119.006
61.25                   0.163269        -119.158         0.986517         150.854         0.986303         150.874         0.163297        -119.042
61.26                   0.163447        -119.193         0.986488         150.819         0.986274          150.84         0.163475        -119.077
61.27                   0.163625        -119.227         0.986459         150.784         0.986246         150.805         0.163653        -119.112
61.28                   0.163803        -119.262          0.98643         150.749         0.986218          150.77         0.163831        -119.147
61.29                   0.163981        -119.297           0.9864         150.714         0.986189         150.735         0.164009        -119.182
61.3                    0.164159        -119.332         0.986371         150.679         0.986161           150.7         0.164187        -119.217
61.31                   0.164337        -119.366         0.986342         150.644         0.986132         150.666         0.164365        -119.252
61.32                   0.164514        -119.401         0.986312         150.609         0.986104         150.631         0.164543        -119.287
61.33                   0.164692        -119.436         0.986283         150.574         0.986076         150.596         0.164721        -119.322
61.34                    0.16487         -119.47         0.986253          150.54         0.986047         150.561         0.164898        -119.357
61.35                   0.165048        -119.505         0.986224         150.505         0.986019         150.526         0.165076        -119.392
61.36                   0.165225         -119.54         0.986194          150.47          0.98599         150.492         0.165254        -119.427
61.37                   0.165403        -119.574         0.986165         150.435         0.985962         150.457         0.165431        -119.462
61.38                    0.16558        -119.609         0.986136           150.4         0.985933         150.422         0.165609        -119.497
61.39                   0.165757        -119.644         0.986106         150.365         0.985905         150.387         0.165786        -119.533
61.4                    0.165935        -119.678         0.986076          150.33         0.985876         150.352         0.165964        -119.568
61.41                   0.166112        -119.713         0.986047         150.296         0.985848         150.318         0.166141        -119.603
61.42                   0.166289        -119.748         0.986017         150.261         0.985819         150.283         0.166318        -119.638
61.43                   0.166466        -119.783         0.985988         150.226         0.985791         150.248         0.166495        -119.673
61.44                   0.166644        -119.817         0.985958         150.191         0.985762         150.213         0.166672        -119.708
61.45                   0.166821        -119.852         0.985929         150.156         0.985734         150.178         0.166849        -119.743
61.46                   0.166998        -119.887         0.985899         150.121         0.985705         150.144         0.167027        -119.778
61.47                   0.167174        -119.921         0.985869         150.087         0.985677         150.109         0.167203        -119.813
61.48                   0.167351        -119.956          0.98584         150.052         0.985648         150.074          0.16738        -119.848
61.49                   0.167528        -119.991          0.98581         150.017         0.985619         150.039         0.167557        -119.883
61.5                    0.167705        -120.025          0.98578         149.982         0.985591         150.005         0.167734        -119.918
61.51                   0.167882         -120.06          0.98575         149.947         0.985562          149.97         0.167911        -119.953
61.52                   0.168058        -120.095         0.985721         149.913         0.985534         149.935         0.168087        -119.988
61.53                   0.168235        -120.129         0.985691         149.878         0.985505           149.9         0.168264        -120.023
61.54                   0.168411        -120.164         0.985661         149.843         0.985476         149.866         0.168441        -120.058
61.55                   0.168588        -120.199         0.985631         149.808         0.985448         149.831         0.168617        -120.093
61.56                   0.168764        -120.234         0.985601         149.773         0.985419         149.796         0.168794        -120.129
61.57                   0.168941        -120.268         0.985572         149.739          0.98539         149.762          0.16897        -120.164
61.58                   0.169117        -120.303         0.985542         149.704         0.985361         149.727         0.169146        -120.199
61.59                   0.169293        -120.338         0.985512         149.669         0.985333         149.692         0.169323        -120.234
61.6                    0.169469        -120.372         0.985482         149.634         0.985304         149.657         0.169499        -120.269
61.61                   0.169645        -120.407         0.985452         149.599         0.985275         149.623         0.169675        -120.304
61.62                   0.169821        -120.442         0.985422         149.565         0.985246         149.588         0.169851        -120.339
61.63                   0.169997        -120.476         0.985392          149.53         0.985217         149.553         0.170027        -120.374
61.64                   0.170173        -120.511         0.985362         149.495         0.985189         149.518         0.170203        -120.409
61.65                   0.170349        -120.546         0.985332          149.46          0.98516         149.484         0.170379        -120.444
61.66                   0.170525         -120.58         0.985302         149.426         0.985131         149.449         0.170555        -120.479
61.67                   0.170701        -120.615         0.985272         149.391         0.985102         149.414         0.170731        -120.514
61.68                   0.170876         -120.65         0.985242         149.356         0.985073          149.38         0.170906        -120.549
61.69                   0.171052        -120.684         0.985212         149.321         0.985044         149.345         0.171082        -120.584
61.7                    0.171227        -120.719         0.985182         149.286         0.985015          149.31         0.171258        -120.619
61.71                   0.171403        -120.754         0.985152         149.252         0.984986         149.276         0.171433        -120.654
61.72                   0.171578        -120.788         0.985121         149.217         0.984957         149.241         0.171609        -120.689
61.73                   0.171754        -120.823         0.985091         149.182         0.984928         149.206         0.171784        -120.724
61.74                   0.171929        -120.858         0.985061         149.148         0.984899         149.172         0.171959        -120.759
61.75                   0.172104        -120.892         0.985031         149.113          0.98487         149.137         0.172135        -120.794
61.76                   0.172279        -120.927         0.985001         149.078         0.984841         149.102          0.17231        -120.829
61.77                   0.172455        -120.962          0.98497         149.043         0.984812         149.068         0.172485        -120.864
61.78                    0.17263        -120.997          0.98494         149.009         0.984783         149.033          0.17266        -120.899
61.79                   0.172805        -121.031          0.98491         148.974         0.984754         148.998         0.172835        -120.934
61.8                     0.17298        -121.066          0.98488         148.939         0.984724         148.964          0.17301        -120.969
61.81                   0.173155        -121.101         0.984849         148.904         0.984695         148.929         0.173185        -121.004
61.82                   0.173329        -121.135         0.984819          148.87         0.984666         148.894          0.17336        -121.039
61.83                   0.173504         -121.17         0.984788         148.835         0.984637          148.86         0.173535        -121.074
61.84                   0.173679        -121.205         0.984758           148.8         0.984608         148.825          0.17371        -121.109
61.85                   0.173853        -121.239         0.984728         148.766         0.984578          148.79         0.173885        -121.144
61.86                   0.174028        -121.274         0.984697         148.731         0.984549         148.756         0.174059        -121.179
61.87                   0.174203        -121.309         0.984667         148.696          0.98452         148.721         0.174234        -121.214
61.88                   0.174377        -121.343         0.984636         148.661         0.984491         148.686         0.174408        -121.249
61.89                   0.174551        -121.378         0.984606         148.627         0.984461         148.652         0.174583        -121.284
61.9                    0.174726        -121.412         0.984575         148.592         0.984432         148.617         0.174757         -121.32
61.91                     0.1749        -121.447         0.984545         148.557         0.984402         148.582         0.174931        -121.354
61.92                   0.175074        -121.482         0.984514         148.523         0.984373         148.548         0.175106        -121.389
61.93                   0.175248        -121.516         0.984484         148.488         0.984344         148.513          0.17528        -121.424
61.94                   0.175422        -121.551         0.984453         148.453         0.984314         148.479         0.175454        -121.459
61.95                   0.175596        -121.586         0.984423         148.419         0.984285         148.444         0.175628        -121.494
61.96                    0.17577         -121.62         0.984392         148.384         0.984255         148.409         0.175802        -121.529
61.97                   0.175944        -121.655         0.984361         148.349         0.984226         148.375         0.175976        -121.564