! TOUCHSTONE file generated by CST MICROWAVE STUDIO
! Date and time: Fri Mar  8 11:09:31 2024
! Project name: material_angular.cst
! Parameters = {d=9.15; Yi=5; iiii=5; exis2=5; exis=5; X=5; Z=5; Y=2}
! Header version: 2018
! Port assignment regex: !\s*Touchstone port\s*([0-9]+)\s*=\s*(CST MWS port|CST DS port)\s*([0-9]+|Zmin|Zmax)\s*\(\"(.*)\"\)(\s*mode\s*([0-9]+))?.*
! Touchstone port assignment:
! Touchstone port 1 = CST MWS port 1 ("")
! Touchstone port 2 = CST MWS port 2 ("")
# GHz S MA R 376.7
60                      0.140581        -93.2122         0.990032         176.863         0.989944         176.877          0.14059        -93.0509
60.01                   0.140764        -93.2435         0.990006         176.832         0.989917         176.845         0.140773        -93.0825
60.02                   0.140947        -93.2749          0.98998           176.8          0.98989         176.814         0.140956        -93.1142
60.03                   0.141129        -93.3063         0.989954         176.769         0.989863         176.782         0.141138        -93.1458
60.04                   0.141312        -93.3376         0.989928         176.738         0.989836          176.75         0.141321        -93.1774
60.05                   0.141494         -93.369         0.989902         176.706         0.989809         176.719         0.141503         -93.209
60.06                   0.141677        -93.4004         0.989876         176.675         0.989782         176.687         0.141686        -93.2407
60.07                   0.141859        -93.4317          0.98985         176.643         0.989755         176.656         0.141868        -93.2723
60.08                   0.142042        -93.4631         0.989823         176.612         0.989729         176.624         0.142051        -93.3039
60.09                   0.142224        -93.4945         0.989797          176.58         0.989702         176.593         0.142233        -93.3355
60.1                    0.142407        -93.5258         0.989771         176.549         0.989675         176.561         0.142415        -93.3672
60.11                   0.142589        -93.5572         0.989745         176.518         0.989648          176.53         0.142598        -93.3988
60.12                   0.142771        -93.5885         0.989718         176.486         0.989621         176.498          0.14278        -93.4304
60.13                   0.142954        -93.6199         0.989692         176.455         0.989594         176.466         0.142962         -93.462
60.14                   0.143136        -93.6512         0.989666         176.423         0.989567         176.435         0.143145        -93.4936
60.15                   0.143318        -93.6826          0.98964         176.392          0.98954         176.403         0.143327        -93.5252
60.16                     0.1435        -93.7139         0.989613         176.361         0.989513         176.372         0.143509        -93.5568
60.17                   0.143683        -93.7453         0.989587         176.329         0.989486          176.34         0.143691        -93.5884
60.18                   0.143865        -93.7766          0.98956         176.298         0.989459         176.309         0.143873          -93.62
60.19                   0.144047         -93.808         0.989534         176.266         0.989432         176.277         0.144055        -93.6516
60.2                    0.144229        -93.8393         0.989507         176.235         0.989405         176.246         0.144237        -93.6832
60.21                   0.144411        -93.8707         0.989481         176.203         0.989377         176.214         0.144419        -93.7148
60.22                   0.144593         -93.902         0.989454         176.172          0.98935         176.183         0.144601        -93.7464
60.23                   0.144775        -93.9333         0.989428         176.141         0.989323         176.151         0.144783         -93.778
60.24                   0.144957        -93.9647         0.989401         176.109         0.989296          176.12         0.144965        -93.8096
60.25                   0.145139         -93.996         0.989375         176.078         0.989269         176.088         0.145147        -93.8412
60.26                   0.145321        -94.0273         0.989348         176.046         0.989242         176.057         0.145329        -93.8728
60.27                   0.145502        -94.0587         0.989321         176.015         0.989215         176.025         0.145511        -93.9044
60.28                   0.145684          -94.09         0.989295         175.984         0.989188         175.994         0.145692        -93.9359
60.29                   0.145866        -94.1213         0.989268         175.952         0.989161         175.962         0.145874        -93.9675
60.3                    0.146048        -94.1527         0.989241         175.921         0.989133         175.931         0.146056        -93.9991
60.31                   0.146229         -94.184         0.989214          175.89         0.989106         175.899         0.146237        -94.0307
60.32                   0.146411        -94.2153         0.989187         175.858         0.989079         175.868         0.146419        -94.0622
60.33                   0.146592        -94.2466         0.989161         175.827         0.989052         175.836         0.146601        -94.0938
60.34                   0.146774         -94.278         0.989134         175.795         0.989025         175.805         0.146782        -94.1254
60.35                   0.146956        -94.3093         0.989107         175.764         0.988997         175.773         0.146964         -94.157
60.36                   0.147137        -94.3406          0.98908         175.733          0.98897         175.742         0.147145        -94.1885
60.37                   0.147319        -94.3719         0.989053         175.701         0.988943          175.71         0.147327        -94.2201
60.38                     0.1475        -94.4032         0.989026          175.67         0.988916         175.679         0.147508        -94.2517
60.39                   0.147681        -94.4345         0.988999         175.638         0.988888         175.647         0.147689        -94.2832
60.4                    0.147863        -94.4658         0.988972         175.607         0.988861         175.616         0.147871        -94.3148
60.41                   0.148044        -94.4971         0.988945         175.576         0.988834         175.584         0.148052        -94.3463
60.42                   0.148225        -94.5285         0.988918         175.544         0.988806         175.553         0.148233        -94.3779
60.43                   0.148407        -94.5598         0.988891         175.513         0.988779         175.521         0.148414        -94.4094
60.44                   0.148588        -94.5911         0.988864         175.482         0.988752          175.49         0.148596         -94.441
60.45                   0.148769        -94.6224         0.988836          175.45         0.988724         175.458         0.148777        -94.4725
60.46                    0.14895        -94.6537         0.988809         175.419         0.988697         175.427         0.148958        -94.5041
60.47                   0.149131         -94.685         0.988782         175.388          0.98867         175.395         0.149139        -94.5356
60.48                   0.149312        -94.7163         0.988755         175.356         0.988642         175.364          0.14932        -94.5672
60.49                   0.149493        -94.7476         0.988727         175.325         0.988615         175.333         0.149501        -94.5987
60.5                    0.149674        -94.7789           0.9887         175.293         0.988588         175.301         0.149682        -94.6302
60.51                   0.149855        -94.8101         0.988673         175.262          0.98856          175.27         0.149863        -94.6618
60.52                   0.150036        -94.8414         0.988645         175.231         0.988533         175.238         0.150044        -94.6933
60.53                   0.150217        -94.8727         0.988618         175.199         0.988505         175.207         0.150225        -94.7248
60.54                   0.150398         -94.904         0.988591         175.168         0.988478         175.175         0.150405        -94.7564
60.55                   0.150578        -94.9353         0.988563         175.137          0.98845         175.144         0.150586        -94.7879
60.56                   0.150759        -94.9666         0.988536         175.105         0.988423         175.112         0.150767        -94.8194
60.57                    0.15094        -94.9979         0.988508         175.074         0.988395         175.081         0.150947        -94.8509
60.58                   0.151121        -95.0291         0.988481         175.043         0.988368          175.05         0.151128        -94.8825
60.59                   0.151301        -95.0604         0.988453         175.011          0.98834         175.018         0.151309         -94.914
60.6                    0.151482        -95.0917         0.988426          174.98         0.988313         174.987         0.151489        -94.9455
60.61                   0.151662         -95.123         0.988398         174.949         0.988285         174.955          0.15167         -94.977
60.62                   0.151843        -95.1542          0.98837         174.917         0.988258         174.924          0.15185        -95.0085
60.63                   0.152023        -95.1855         0.988343         174.886          0.98823         174.892         0.152031          -95.04
60.64                   0.152204        -95.2168         0.988315         174.855         0.988203         174.861         0.152211        -95.0715
60.65                   0.152384        -95.2481         0.988287         174.823         0.988175          174.83         0.152391        -95.1031
60.66                   0.152564        -95.2793          0.98826         174.792         0.988147         174.798         0.152572        -95.1346
60.67                   0.152745        -95.3106         0.988232         174.761          0.98812         174.767         0.152752        -95.1661
60.68                   0.152925        -95.3419         0.988204         174.729         0.988092         174.735         0.152932        -95.1976
60.69                   0.153105        -95.3731         0.988176         174.698         0.988065         174.704         0.153112        -95.2291
60.7                    0.153285        -95.4044         0.988148         174.667         0.988037         174.672         0.153293        -95.2606
60.71                   0.153466        -95.4356         0.988121         174.635         0.988009         174.641         0.153473        -95.2921
60.72                   0.153646        -95.4669         0.988093         174.604         0.987982          174.61         0.153653        -95.3235
60.73                   0.153826        -95.4981         0.988065         174.573         0.987954         174.578         0.153833         -95.355
60.74                   0.154006        -95.5294         0.988037         174.541         0.987926         174.547         0.154013        -95.3865
60.75                   0.154186        -95.5606         0.988009          174.51         0.987898         174.515         0.154193         -95.418
60.76                   0.154366        -95.5919         0.987981         174.479         0.987871         174.484         0.154373        -95.4495
60.77                   0.154546        -95.6231         0.987953         174.447         0.987843         174.453         0.154553         -95.481
60.78                   0.154725        -95.6544         0.987925         174.416         0.987815         174.421         0.154732        -95.5125
60.79                   0.154905        -95.6856         0.987897         174.385         0.987787          174.39         0.154912        -95.5439
60.8                    0.155085        -95.7169         0.987869         174.353          0.98776         174.358         0.155092        -95.5754
60.81                   0.155265        -95.7481         0.987841         174.322         0.987732         174.327         0.155272        -95.6069
60.82                   0.155444        -95.7794         0.987812         174.291         0.987704         174.296         0.155451        -95.6384
60.83                   0.155624        -95.8106         0.987784          174.26         0.987676         174.264         0.155631        -95.6698
60.84                   0.155804        -95.8418         0.987756         174.228         0.987648         174.233          0.15581        -95.7013
60.85                   0.155983        -95.8731         0.987728         174.197          0.98762         174.202          0.15599        -95.7328
60.86                   0.156163        -95.9043           0.9877         174.166         0.987593          174.17         0.156169        -95.7642
60.87                   0.156342        -95.9355         0.987671         174.134         0.987565         174.139         0.156349        -95.7957
60.88                   0.156522        -95.9668         0.987643         174.103         0.987537         174.107         0.156528        -95.8271
60.89                   0.156701         -95.998         0.987615         174.072         0.987509         174.076         0.156708        -95.8586
60.9                     0.15688        -96.0292         0.987586          174.04         0.987481         174.045         0.156887        -95.8901
60.91                    0.15706        -96.0604         0.987558         174.009         0.987453         174.013         0.157066        -95.9215
60.92                   0.157239        -96.0917         0.987529         173.978         0.987425         173.982         0.157245         -95.953
60.93                   0.157418        -96.1229         0.987501         173.947         0.987397         173.951         0.157425        -95.9844
60.94                   0.157597        -96.1541         0.987473         173.915         0.987369         173.919         0.157604        -96.0159
60.95                   0.157776        -96.1853         0.987444         173.884         0.987341         173.888         0.157783        -96.0473
60.96                   0.157956        -96.2165         0.987416         173.853         0.987313         173.857         0.157962        -96.0787
60.97                   0.158135        -96.2477         0.987387         173.821         0.987285         173.825         0.158141        -96.1102
60.98                   0.158314        -96.2789         0.987359          173.79         0.987257         173.794          0.15832        -96.1416
60.99                   0.158493        -96.3102          0.98733         173.759         0.987229         173.762         0.158499        -96.1731
61                      0.158671        -96.3414         0.987301         173.728         0.987201         173.731         0.158678        -96.2045
61.01                    0.15885        -96.3726         0.987273         173.696         0.987173           173.7         0.158856        -96.2359
61.02                   0.159029        -96.4038         0.987244         173.665         0.987145         173.668         0.159035        -96.2674
61.03                   0.159208         -96.435         0.987215         173.634         0.987117         173.637         0.159214        -96.2988
61.04                   0.159387        -96.4662         0.987187         173.603         0.987089         173.606         0.159393        -96.3302
61.05                   0.159565        -96.4974         0.987158         173.571          0.98706         173.574         0.159571        -96.3616
61.06                   0.159744        -96.5286         0.987129          173.54         0.987032         173.543          0.15975        -96.3931
61.07                   0.159922        -96.5598           0.9871         173.509         0.987004         173.512         0.159928        -96.4245
61.08                   0.160101        -96.5909         0.987072         173.478         0.986976         173.481         0.160107        -96.4559
61.09                    0.16028        -96.6221         0.987043         173.446         0.986948         173.449         0.160285        -96.4873
61.1                    0.160458        -96.6533         0.987014         173.415         0.986919         173.418         0.160464        -96.5187
61.11                   0.160636        -96.6845         0.986985         173.384         0.986891         173.387         0.160642        -96.5501
61.12                   0.160815        -96.7157         0.986956         173.352         0.986863         173.355          0.16082        -96.5815
61.13                   0.160993        -96.7469         0.986927         173.321         0.986835         173.324         0.160999        -96.6129
61.14                   0.161171        -96.7781         0.986898          173.29         0.986806         173.293         0.161177        -96.6443
61.15                    0.16135        -96.8092         0.986869         173.259         0.986778         173.261         0.161355        -96.6757
61.16                   0.161528        -96.8404          0.98684         173.227          0.98675          173.23         0.161533        -96.7071
61.17                   0.161706        -96.8716         0.986811         173.196         0.986722         173.199         0.161711        -96.7385
61.18                   0.161884        -96.9028         0.986782         173.165         0.986693         173.167         0.161889        -96.7699
61.19                   0.162062        -96.9339         0.986753         173.134         0.986665         173.136         0.162067        -96.8013
61.2                     0.16224        -96.9651         0.986724         173.103         0.986636         173.105         0.162245        -96.8327
61.21                   0.162418        -96.9963         0.986695         173.071         0.986608         173.074         0.162423        -96.8641
61.22                   0.162596        -97.0275         0.986666          173.04          0.98658         173.042         0.162601        -96.8955
61.23                   0.162774        -97.0586         0.986636         173.009         0.986551         173.011         0.162779        -96.9269
61.24                   0.162951        -97.0898         0.986607         172.978         0.986523          172.98         0.162957        -96.9583
61.25                   0.163129        -97.1209         0.986578         172.946         0.986494         172.948         0.163134        -96.9896
61.26                   0.163307        -97.1521         0.986549         172.915         0.986466         172.917         0.163312         -97.021
61.27                   0.163485        -97.1833         0.986519         172.884         0.986437         172.886          0.16349        -97.0524
61.28                   0.163662        -97.2144          0.98649         172.853         0.986409         172.855         0.163667        -97.0838
61.29                    0.16384        -97.2456         0.986461         172.821          0.98638         172.823         0.163845        -97.1151
61.3                    0.164017        -97.2767         0.986431          172.79         0.986352         172.792         0.164022        -97.1465
61.31                   0.164195        -97.3079         0.986402         172.759         0.986323         172.761           0.1642        -97.1779
61.32                   0.164372         -97.339         0.986373         172.728         0.986295          172.73         0.164377        -97.2092
61.33                   0.164549        -97.3702         0.986343         172.697         0.986266         172.698         0.164554        -97.2406
61.34                   0.164727        -97.4013         0.986314         172.665         0.986238         172.667         0.164732         -97.272
61.35                   0.164904        -97.4324         0.986284         172.634         0.986209         172.636         0.164909        -97.3033
61.36                   0.165081        -97.4636         0.986255         172.603          0.98618         172.605         0.165086        -97.3347
61.37                   0.165258        -97.4947         0.986225         172.572         0.986152         172.573         0.165263         -97.366
61.38                   0.165435        -97.5259         0.986196         172.541         0.986123         172.542          0.16544        -97.3974
61.39                   0.165613         -97.557         0.986166         172.509         0.986094         172.511         0.165617        -97.4287
61.4                     0.16579        -97.5881         0.986137         172.478         0.986066          172.48         0.165794        -97.4601
61.41                   0.165967        -97.6193         0.986107         172.447         0.986037         172.448         0.165971        -97.4914
61.42                   0.166143        -97.6504         0.986077         172.416         0.986008         172.417         0.166148        -97.5227
61.43                    0.16632        -97.6815         0.986048         172.385          0.98598         172.386         0.166325        -97.5541
61.44                   0.166497        -97.7126         0.986018         172.353         0.985951         172.355         0.166502        -97.5854
61.45                   0.166674        -97.7438         0.985988         172.322         0.985922         172.323         0.166678        -97.6168
61.46                   0.166851        -97.7749         0.985958         172.291         0.985893         172.292         0.166855        -97.6481
61.47                   0.167027         -97.806         0.985929          172.26         0.985864         172.261         0.167032        -97.6794
61.48                   0.167204        -97.8371         0.985899         172.229         0.985836          172.23         0.167208        -97.7107
61.49                    0.16738        -97.8682         0.985869         172.197         0.985807         172.198         0.167385        -97.7421
61.5                    0.167557        -97.8993         0.985839         172.166         0.985778         172.167         0.167561        -97.7734
61.51                   0.167733        -97.9304         0.985809         172.135         0.985749         172.136         0.167738        -97.8047
61.52                    0.16791        -97.9615          0.98578         172.104          0.98572         172.105         0.167914         -97.836
61.53                   0.168086        -97.9927          0.98575         172.073         0.985691         172.074          0.16809        -97.8674
61.54                   0.168263        -98.0238          0.98572         172.042         0.985662         172.042         0.168266        -97.8987
61.55                   0.168439        -98.0549          0.98569          172.01         0.985633         172.011         0.168443          -97.93
61.56                   0.168615         -98.086          0.98566         171.979         0.985604          171.98         0.168619        -97.9613
61.57                   0.168791        -98.1171          0.98563         171.948         0.985575         171.949         0.168795        -97.9926
61.58                   0.168967        -98.1482           0.9856         171.917         0.985546         171.918         0.168971        -98.0239
61.59                   0.169143        -98.1792          0.98557         171.886         0.985517         171.886         0.169147        -98.0552
61.6                    0.169319        -98.2103          0.98554         171.855         0.985488         171.855         0.169323        -98.0865
61.61                   0.169495        -98.2414          0.98551         171.823         0.985459         171.824         0.169499        -98.1178
61.62                   0.169671        -98.2725         0.985479         171.792          0.98543         171.793         0.169675        -98.1491
61.63                   0.169847        -98.3036         0.985449         171.761         0.985401         171.762         0.169851        -98.1804
61.64                   0.170023        -98.3347         0.985419          171.73         0.985372         171.731         0.170026        -98.2117
61.65                   0.170199        -98.3658         0.985389         171.699         0.985343         171.699         0.170202         -98.243
61.66                   0.170374        -98.3969         0.985359         171.668         0.985314         171.668         0.170378        -98.2743
61.67                    0.17055        -98.4279         0.985328         171.636         0.985285         171.637         0.170553        -98.3055
61.68                   0.170725         -98.459         0.985298         171.605         0.985256         171.606         0.170729        -98.3368
61.69                   0.170901        -98.4901         0.985268         171.574         0.985226         171.575         0.170904        -98.3681
61.7                    0.171076        -98.5211         0.985238         171.543         0.985197         171.543          0.17108        -98.3994
61.71                   0.171252        -98.5522         0.985207         171.512         0.985168         171.512         0.171255        -98.4306
61.72                   0.171427        -98.5833         0.985177         171.481         0.985139         171.481          0.17143        -98.4619
61.73                   0.171603        -98.6143         0.985147          171.45         0.985109          171.45         0.171606        -98.4932
61.74                   0.171778        -98.6454         0.985116         171.418          0.98508         171.419         0.171781        -98.5245
61.75                   0.171953        -98.6765         0.985086         171.387         0.985051         171.388         0.171956        -98.5557
61.76                   0.172128        -98.7075         0.985055         171.356         0.985021         171.357         0.172131         -98.587
61.77                   0.172303        -98.7386         0.985025         171.325         0.984992         171.325         0.172306        -98.6182
61.78                   0.172478        -98.7696         0.984994         171.294         0.984963         171.294         0.172481        -98.6495
61.79                   0.172653        -98.8007         0.984964         171.263         0.984933         171.263         0.172656        -98.6808
61.8                    0.172828        -98.8317         0.984933         171.232         0.984904         171.232         0.172831         -98.712
61.81                   0.173003        -98.8628         0.984903         171.201         0.984875         171.201         0.173006        -98.7433
61.82                   0.173178        -98.8938         0.984872          171.17         0.984845          171.17         0.173181        -98.7745
61.83                   0.173353        -98.9249         0.984842         171.138         0.984816         171.139         0.173355        -98.8058
61.84                   0.173527        -98.9559         0.984811         171.107         0.984786         171.107          0.17353         -98.837
61.85                   0.173702         -98.987          0.98478         171.076         0.984757         171.076         0.173705        -98.8682
61.86                   0.173877         -99.018          0.98475         171.045         0.984727         171.045         0.173879        -98.8995
61.87                   0.174051         -99.049         0.984719         171.014         0.984698         171.014         0.174054        -98.9307
61.88                   0.174226        -99.0801         0.984688         170.983         0.984668         170.983         0.174228        -98.9619
61.89                     0.1744        -99.1111         0.984658         170.952         0.984639         170.952         0.174403        -98.9932
61.9                    0.174575        -99.1421         0.984627         170.921         0.984609         170.921         0.174577        -99.0244
61.91                   0.174749        -99.1732         0.984596          170.89         0.984579          170.89         0.174751        -99.0556
61.92                   0.174923        -99.2042         0.984565         170.858          0.98455         170.859         0.174925        -99.0869
61.93                   0.175097        -99.2352         0.984535         170.827          0.98452         170.827           0.1751        -99.1181
61.94                   0.175272        -99.2662         0.984504         170.796         0.984491         170.796         0.175274        -99.1493
61.95                   0.175446        -99.2972         0.984473         170.765         0.984461         170.765         0.175448        -99.1805
61.96                    0.17562        -99.3283         0.984442         170.734         0.984431         170.734         0.175622        -99.2117