! TOUCHSTONE file generated by CST MICROWAVE STUDIO
! Date and time: Tue Feb 27 23:06:32 2024
! Project name: material_angular.cst
! Parameters = {Yi=3; iiii=5; exis2=5; exis=5; X=5; Z=5; Y=2}
! Header version: 2018
! Port assignment regex: !\s*Touchstone port\s*([0-9]+)\s*=\s*(CST MWS port|CST DS port)\s*([0-9]+|Zmin|Zmax)\s*\(\"(.*)\"\)(\s*mode\s*([0-9]+))?.*
! Touchstone port assignment:
! Touchstone port 1 = CST MWS port 1 ("")
! Touchstone port 2 = CST MWS port 2 ("")
# GHz S MA R 376.7
60                      0.142175         -154.85         0.989842         155.209         0.989842         155.209         0.142175         -74.732
60.01                   0.142251        -154.872          0.98983          155.18          0.98983          155.18         0.142253        -74.7691
60.02                   0.142327        -154.894         0.989819         155.151         0.989819         155.151         0.142331        -74.8062
60.03                   0.142403        -154.916         0.989808         155.122         0.989808         155.122         0.142409        -74.8433
60.04                   0.142479        -154.938         0.989797         155.092         0.989797         155.092         0.142487        -74.8804
60.05                   0.142555         -154.96         0.989785         155.063         0.989785         155.063         0.142565        -74.9175
60.06                   0.142632        -154.982         0.989774         155.034         0.989774         155.034         0.142643        -74.9545
60.07                   0.142708        -155.004         0.989763         155.005         0.989763         155.005         0.142722        -74.9916
60.08                   0.142784        -155.026         0.989752         154.976         0.989752         154.976           0.1428        -75.0287
60.09                   0.142861        -155.048          0.98974         154.946          0.98974         154.946         0.142878        -75.0658
60.1                    0.142937         -155.07         0.989729         154.917         0.989729         154.917         0.142957        -75.1029
60.11                   0.143014        -155.092         0.989718         154.888         0.989718         154.888         0.143035        -75.1399
60.12                    0.14309        -155.114         0.989706         154.859         0.989706         154.859         0.143113         -75.177
60.13                   0.143167        -155.136         0.989695         154.829         0.989695         154.829         0.143192        -75.2141
60.14                   0.143244        -155.158         0.989684           154.8         0.989684           154.8          0.14327        -75.2512
60.15                    0.14332         -155.18         0.989672         154.771         0.989672         154.771         0.143349        -75.2882
60.16                   0.143397        -155.202         0.989661         154.742         0.989661         154.742         0.143427        -75.3253
60.17                   0.143474        -155.224         0.989649         154.712         0.989649         154.712         0.143506        -75.3624
60.18                   0.143551        -155.246         0.989638         154.683         0.989638         154.683         0.143585        -75.3994
60.19                   0.143628        -155.269         0.989626         154.654         0.989626         154.654         0.143663        -75.4365
60.2                    0.143705        -155.291         0.989615         154.624         0.989615         154.624         0.143742        -75.4735
60.21                   0.143782        -155.313         0.989603         154.595         0.989603         154.595         0.143821        -75.5106
60.22                   0.143859        -155.335         0.989592         154.566         0.989592         154.566           0.1439        -75.5477
60.23                   0.143936        -155.357          0.98958         154.536          0.98958         154.536         0.143979        -75.5847
60.24                   0.144013        -155.379         0.989569         154.507         0.989569         154.507         0.144057        -75.6218
60.25                   0.144091        -155.401         0.989557         154.478         0.989557         154.478         0.144136        -75.6588
60.26                   0.144168        -155.423         0.989546         154.448         0.989546         154.448         0.144215        -75.6959
60.27                   0.144245        -155.446         0.989534         154.419         0.989534         154.419         0.144294        -75.7329
60.28                   0.144323        -155.468         0.989522          154.39         0.989522          154.39         0.144373          -75.77
60.29                     0.1444         -155.49         0.989511          154.36         0.989511          154.36         0.144453         -75.807
60.3                    0.144478        -155.512         0.989499         154.331         0.989499         154.331         0.144532        -75.8441
60.31                   0.144555        -155.534         0.989488         154.301         0.989488         154.301         0.144611        -75.8811
60.32                   0.144633        -155.557         0.989476         154.272         0.989476         154.272          0.14469        -75.9182
60.33                   0.144711        -155.579         0.989464         154.242         0.989464         154.242         0.144769        -75.9552
60.34                   0.144789        -155.601         0.989452         154.213         0.989452         154.213         0.144849        -75.9923
60.35                   0.144866        -155.623         0.989441         154.184         0.989441         154.184         0.144928        -76.0293
60.36                   0.144944        -155.645         0.989429         154.154         0.989429         154.154         0.145007        -76.0664
60.37                   0.145022        -155.668         0.989417         154.125         0.989417         154.125         0.145087        -76.1034
60.38                     0.1451         -155.69         0.989406         154.095         0.989406         154.095         0.145166        -76.1405
60.39                   0.145178        -155.712         0.989394         154.066         0.989394         154.066         0.145246        -76.1775
60.4                    0.145256        -155.734         0.989382         154.036         0.989382         154.036         0.145325        -76.2145
60.41                   0.145335        -155.757          0.98937         154.007          0.98937         154.007         0.145405        -76.2516
60.42                   0.145413        -155.779         0.989358         153.977         0.989358         153.977         0.145484        -76.2886
60.43                   0.145491        -155.801         0.989347         153.948         0.989347         153.948         0.145564        -76.3257
60.44                   0.145569        -155.823         0.989335         153.918         0.989335         153.918         0.145644        -76.3627
60.45                   0.145648        -155.846         0.989323         153.889         0.989323         153.889         0.145724        -76.3998
60.46                   0.145726        -155.868         0.989311         153.859         0.989311         153.859         0.145803        -76.4368
60.47                   0.145805         -155.89         0.989299          153.83         0.989299          153.83         0.145883        -76.4739
60.48                   0.145883        -155.913         0.989287           153.8         0.989287           153.8         0.145963        -76.5109
60.49                   0.145962        -155.935         0.989275          153.77         0.989275          153.77         0.146043         -76.548
60.5                    0.146041        -155.957         0.989263         153.741         0.989263         153.741         0.146123         -76.585
60.51                   0.146119        -155.979         0.989251         153.711         0.989251         153.711         0.146203        -76.6221
60.52                   0.146198        -156.002         0.989239         153.682         0.989239         153.682         0.146283        -76.6591
60.53                   0.146277        -156.024         0.989227         153.652         0.989227         153.652         0.146363        -76.6962
60.54                   0.146356        -156.046         0.989215         153.622         0.989215         153.622         0.146443        -76.7332
60.55                   0.146435        -156.069         0.989203         153.593         0.989203         153.593         0.146523        -76.7703
60.56                   0.146514        -156.091         0.989191         153.563         0.989191         153.563         0.146603        -76.8074
60.57                   0.146593        -156.114         0.989179         153.534         0.989179         153.534         0.146683        -76.8444
60.58                   0.146672        -156.136         0.989167         153.504         0.989167         153.504         0.146764        -76.8815
60.59                   0.146751        -156.158         0.989155         153.474         0.989155         153.474         0.146844        -76.9186
60.6                    0.146831        -156.181         0.989143         153.445         0.989143         153.445         0.146924        -76.9556
60.61                    0.14691        -156.203         0.989131         153.415         0.989131         153.415         0.147005        -76.9927
60.62                   0.146989        -156.225         0.989119         153.385         0.989119         153.385         0.147085        -77.0298
60.63                   0.147069        -156.248         0.989107         153.356         0.989107         153.356         0.147166        -77.0668
60.64                   0.147148         -156.27         0.989095         153.326         0.989095         153.326         0.147246        -77.1039
60.65                   0.147228        -156.293         0.989082         153.296         0.989082         153.296         0.147327         -77.141
60.66                   0.147307        -156.315          0.98907         153.266          0.98907         153.266         0.147407        -77.1781
60.67                   0.147387        -156.338         0.989058         153.237         0.989058         153.237         0.147488        -77.2151
60.68                   0.147467         -156.36         0.989046         153.207         0.989046         153.207         0.147568        -77.2522
60.69                   0.147546        -156.382         0.989034         153.177         0.989034         153.177         0.147649        -77.2893
60.7                    0.147626        -156.405         0.989021         153.147         0.989021         153.147          0.14773        -77.3264
60.71                   0.147706        -156.427         0.989009         153.118         0.989009         153.118         0.147811        -77.3635
60.72                   0.147786         -156.45         0.988997         153.088         0.988997         153.088         0.147891        -77.4006
60.73                   0.147866        -156.472         0.988985         153.058         0.988985         153.058         0.147972        -77.4377
60.74                   0.147946        -156.495         0.988972         153.028         0.988972         153.028         0.148053        -77.4748
60.75                   0.148026        -156.517          0.98896         152.999          0.98896         152.999         0.148134        -77.5119
60.76                   0.148106         -156.54         0.988948         152.969         0.988948         152.969         0.148215         -77.549
60.77                   0.148187        -156.562         0.988935         152.939         0.988935         152.939         0.148296        -77.5861
60.78                   0.148267        -156.585         0.988923         152.909         0.988923         152.909         0.148377        -77.6232
60.79                   0.148347        -156.607         0.988911         152.879         0.988911         152.879         0.148458        -77.6604
60.8                    0.148428         -156.63         0.988898         152.849         0.988898         152.849         0.148539        -77.6975
60.81                   0.148508        -156.652         0.988886          152.82         0.988886          152.82          0.14862        -77.7346
60.82                   0.148589        -156.675         0.988874          152.79         0.988874          152.79         0.148702        -77.7717
60.83                   0.148669        -156.697         0.988861          152.76         0.988861          152.76         0.148783        -77.8089
60.84                    0.14875         -156.72         0.988849          152.73         0.988849          152.73         0.148864         -77.846
60.85                   0.148831        -156.742         0.988836           152.7         0.988836           152.7         0.148945        -77.8832
60.86                   0.148911        -156.765         0.988824          152.67         0.988824          152.67         0.149027        -77.9203
60.87                   0.148992        -156.787         0.988812          152.64         0.988812          152.64         0.149108        -77.9575
60.88                   0.149073         -156.81         0.988799          152.61         0.988799          152.61          0.14919        -77.9946
60.89                   0.149154        -156.832         0.988787          152.58         0.988787          152.58         0.149271        -78.0318
60.9                    0.149235        -156.855         0.988774         152.551         0.988774         152.551         0.149353         -78.069
60.91                   0.149316        -156.878         0.988762         152.521         0.988762         152.521         0.149434        -78.1061
60.92                   0.149397          -156.9         0.988749         152.491         0.988749         152.491         0.149516        -78.1433
60.93                   0.149478        -156.923         0.988736         152.461         0.988736         152.461         0.149597        -78.1805
60.94                    0.14956        -156.945         0.988724         152.431         0.988724         152.431         0.149679        -78.2177
60.95                   0.149641        -156.968         0.988711         152.401         0.988711         152.401         0.149761        -78.2549
60.96                   0.149722        -156.991         0.988699         152.371         0.988699         152.371         0.149843        -78.2921
60.97                   0.149804        -157.013         0.988686         152.341         0.988686         152.341         0.149924        -78.3293
60.98                   0.149885        -157.036         0.988674         152.311         0.988674         152.311         0.150006        -78.3665
60.99                   0.149967        -157.058         0.988661         152.281         0.988661         152.281         0.150088        -78.4037
61                      0.150048        -157.081         0.988648         152.251         0.988648         152.251          0.15017         -78.441
61.01                    0.15013        -157.104         0.988636         152.221         0.988636         152.221         0.150252        -78.4782
61.02                   0.150212        -157.126         0.988623         152.191         0.988623         152.191         0.150334        -78.5154
61.03                   0.150294        -157.149          0.98861         152.161          0.98861         152.161         0.150416        -78.5527
61.04                   0.150375        -157.172         0.988598         152.131         0.988598         152.131         0.150498        -78.5899
61.05                   0.150457        -157.194         0.988585         152.101         0.988585         152.101          0.15058        -78.6272
61.06                   0.150539        -157.217         0.988572          152.07         0.988572          152.07         0.150662        -78.6644
61.07                   0.150621         -157.24          0.98856          152.04          0.98856          152.04         0.150745        -78.7017
61.08                   0.150704        -157.262         0.988547          152.01         0.988547          152.01         0.150827         -78.739
61.09                   0.150786        -157.285         0.988534          151.98         0.988534          151.98         0.150909        -78.7763
61.1                    0.150868        -157.308         0.988521          151.95         0.988521          151.95         0.150992        -78.8136
61.11                    0.15095         -157.33         0.988509          151.92         0.988509          151.92         0.151074        -78.8509
61.12                   0.151033        -157.353         0.988496          151.89         0.988496          151.89         0.151156        -78.8882
61.13                   0.151115        -157.376         0.988483          151.86         0.988483          151.86         0.151239        -78.9255
61.14                   0.151198        -157.398          0.98847          151.83          0.98847          151.83         0.151321        -78.9628
61.15                    0.15128        -157.421         0.988458         151.799         0.988458         151.799         0.151404        -79.0002
61.16                   0.151363        -157.444         0.988445         151.769         0.988445         151.769         0.151486        -79.0375
61.17                   0.151445        -157.467         0.988432         151.739         0.988432         151.739         0.151569        -79.0749
61.18                   0.151528        -157.489         0.988419         151.709         0.988419         151.709         0.151652        -79.1122
61.19                   0.151611        -157.512         0.988406         151.679         0.988406         151.679         0.151734        -79.1496
61.2                    0.151694        -157.535         0.988393         151.648         0.988393         151.648         0.151817         -79.187
61.21                   0.151777        -157.558          0.98838         151.618          0.98838         151.618           0.1519        -79.2244
61.22                    0.15186         -157.58         0.988368         151.588         0.988368         151.588         0.151983        -79.2618
61.23                   0.151943        -157.603         0.988355         151.558         0.988355         151.558         0.152066        -79.2992
61.24                   0.152026        -157.626         0.988342         151.528         0.988342         151.528         0.152149        -79.3366
61.25                   0.152109        -157.649         0.988329         151.497         0.988329         151.497         0.152231         -79.374
61.26                   0.152192        -157.671         0.988316         151.467         0.988316         151.467         0.152314        -79.4114
61.27                   0.152276        -157.694         0.988303         151.437         0.988303         151.437         0.152397        -79.4489
61.28                   0.152359        -157.717          0.98829         151.407          0.98829         151.407         0.152481        -79.4863
61.29                   0.152443         -157.74         0.988277         151.376         0.988277         151.376         0.152564        -79.5238
61.3                    0.152526        -157.763         0.988264         151.346         0.988264         151.346         0.152647        -79.5613
61.31                    0.15261        -157.785         0.988251         151.316         0.988251         151.316          0.15273        -79.5988
61.32                   0.152693        -157.808         0.988238         151.285         0.988238         151.285         0.152813        -79.6362
61.33                   0.152777        -157.831         0.988225         151.255         0.988225         151.255         0.152897        -79.6738
61.34                   0.152861        -157.854         0.988212         151.225         0.988212         151.225          0.15298        -79.7113
61.35                   0.152945        -157.877         0.988199         151.194         0.988199         151.194         0.153063        -79.7488
61.36                   0.153029          -157.9         0.988186         151.164         0.988186         151.164         0.153147        -79.7863
61.37                   0.153113        -157.922         0.988173         151.134         0.988173         151.134          0.15323        -79.8239
61.38                   0.153197        -157.945          0.98816         151.103          0.98816         151.103         0.153314        -79.8614
61.39                   0.153281        -157.968         0.988147         151.073         0.988147         151.073         0.153397         -79.899
61.4                    0.153365        -157.991         0.988134         151.043         0.988134         151.043         0.153481        -79.9366
61.41                   0.153449        -158.014         0.988121         151.012         0.988121         151.012         0.153565        -79.9742
61.42                   0.153534        -158.037         0.988107         150.982         0.988107         150.982         0.153648        -80.0118
61.43                   0.153618         -158.06         0.988094         150.951         0.988094         150.951         0.153732        -80.0494
61.44                   0.153702        -158.083         0.988081         150.921         0.988081         150.921         0.153816        -80.0871
61.45                   0.153787        -158.105         0.988068         150.891         0.988068         150.891           0.1539        -80.1247
61.46                   0.153872        -158.128         0.988055          150.86         0.988055          150.86         0.153984        -80.1624
61.47                   0.153956        -158.151         0.988042          150.83         0.988042          150.83         0.154068        -80.2001
61.48                   0.154041        -158.174         0.988029         150.799         0.988029         150.799         0.154151        -80.2377
61.49                   0.154126        -158.197         0.988015         150.769         0.988015         150.769         0.154235        -80.2754
61.5                    0.154211         -158.22         0.988002         150.738         0.988002         150.738          0.15432        -80.3132
61.51                   0.154296        -158.243         0.987989         150.708         0.987989         150.708         0.154404        -80.3509
61.52                   0.154381        -158.266         0.987976         150.677         0.987976         150.677         0.154488        -80.3886
61.53                   0.154466        -158.289         0.987963         150.647         0.987963         150.647         0.154572        -80.4264
61.54                   0.154551        -158.312         0.987949         150.616         0.987949         150.616         0.154656        -80.4642
61.55                   0.154636        -158.335         0.987936         150.586         0.987936         150.586         0.154741        -80.5019
61.56                   0.154721        -158.358         0.987923         150.555         0.987923         150.555         0.154825        -80.5397
61.57                   0.154807        -158.381          0.98791         150.525          0.98791         150.525         0.154909        -80.5776
61.58                   0.154892        -158.404         0.987896         150.494         0.987896         150.494         0.154994        -80.6154
61.59                   0.154978        -158.427         0.987883         150.464         0.987883         150.464         0.155078        -80.6532
61.6                    0.155063         -158.45          0.98787         150.433          0.98787         150.433         0.155163        -80.6911
61.61                   0.155149        -158.472         0.987857         150.403         0.987857         150.403         0.155247         -80.729
61.62                   0.155235        -158.495         0.987843         150.372         0.987843         150.372         0.155332        -80.7669
61.63                    0.15532        -158.518          0.98783         150.341          0.98783         150.341         0.155417        -80.8048
61.64                   0.155406        -158.541         0.987817         150.311         0.987817         150.311         0.155502        -80.8427
61.65                   0.155492        -158.564         0.987803          150.28         0.987803          150.28         0.155586        -80.8806
61.66                   0.155578        -158.587          0.98779          150.25          0.98779          150.25         0.155671        -80.9186
61.67                   0.155664         -158.61         0.987777         150.219         0.987777         150.219         0.155756        -80.9566
61.68                   0.155751        -158.634         0.987763         150.188         0.987763         150.188         0.155841        -80.9945
61.69                   0.155837        -158.657          0.98775         150.158          0.98775         150.158         0.155926        -81.0325
61.7                    0.155923         -158.68         0.987737         150.127         0.987737         150.127         0.156011        -81.0706
61.71                    0.15601        -158.703         0.987723         150.096         0.987723         150.096         0.156096        -81.1086
61.72                   0.156096        -158.726          0.98771         150.066          0.98771         150.066         0.156181        -81.1467
61.73                   0.156183        -158.749         0.987697         150.035         0.987697         150.035         0.156267        -81.1848
61.74                   0.156269        -158.772         0.987683         150.004         0.987683         150.004         0.156352        -81.2228
61.75                   0.156356        -158.795          0.98767         149.973          0.98767         149.973         0.156437         -81.261
61.76                   0.156443        -158.818         0.987657         149.943         0.987657         149.943         0.156522        -81.2991
61.77                   0.156529        -158.841         0.987643         149.912         0.987643         149.912         0.156608        -81.3372
61.78                   0.156616        -158.864          0.98763         149.881          0.98763         149.881         0.156693        -81.3754
61.79                   0.156703        -158.887         0.987616         149.851         0.987616         149.851         0.156779        -81.4136
61.8                     0.15679         -158.91         0.987603          149.82         0.987603          149.82         0.156864        -81.4518
61.81                   0.156878        -158.933         0.987589         149.789         0.987589         149.789          0.15695          -81.49
61.82                   0.156965        -158.956         0.987576         149.758         0.987576         149.758         0.157036        -81.5283
61.83                   0.157052         -158.98         0.987563         149.727         0.987563         149.727         0.157122        -81.5665
61.84                    0.15714        -159.003         0.987549         149.697         0.987549         149.697         0.157207        -81.6048
61.85                   0.157227        -159.026         0.987536         149.666         0.987536         149.666         0.157293        -81.6431
61.86                   0.157315        -159.049         0.987522         149.635         0.987522         149.635         0.157379        -81.6815
61.87                   0.157402        -159.072         0.987509         149.604         0.987509         149.604         0.157465        -81.7198
61.88                    0.15749        -159.095         0.987495         149.573         0.987495         149.573         0.157551        -81.7582
61.89                   0.157578        -159.118         0.987482         149.543         0.987482         149.543         0.157637        -81.7966
61.9                    0.157666        -159.141         0.987468         149.512         0.987468         149.512         0.157724         -81.835
61.91                   0.157754        -159.165         0.987455         149.481         0.987455         149.481          0.15781        -81.8734
61.92                   0.157842        -159.188         0.987441          149.45         0.987441          149.45         0.157896        -81.9119
61.93                    0.15793        -159.211         0.987428         149.419         0.987428         149.419         0.157982        -81.9503
61.94                   0.158018        -159.234         0.987415         149.388         0.987415         149.388         0.158069        -81.9888
61.95                   0.158106        -159.257         0.987401         149.357         0.987401         149.357         0.158155        -82.0274
61.96                   0.158195         -159.28         0.987388         149.326         0.987388         149.326         0.158242        -82.0659