! TOUCHSTONE file generated by CST MICROWAVE STUDIO
! Date and time: Fri Mar  8 11:09:32 2024
! Project name: material_angular.cst
! Parameters = {d=9.2; Yi=5; iiii=5; exis2=5; exis=5; X=5; Z=5; Y=2}
! Header version: 2018
! Port assignment regex: !\s*Touchstone port\s*([0-9]+)\s*=\s*(CST MWS port|CST DS port)\s*([0-9]+|Zmin|Zmax)\s*\(\"(.*)\"\)(\s*mode\s*([0-9]+))?.*
! Touchstone port assignment:
! Touchstone port 1 = CST MWS port 1 ("")
! Touchstone port 2 = CST MWS port 2 ("")
# GHz S MA R 376.7
60                      0.140579        -85.9824         0.990129        -175.929         0.989872        -175.931         0.140588        -85.8624
60.01                   0.140763        -86.0129         0.990102        -175.959         0.989847        -175.961         0.140771        -85.8922
60.02                   0.140946        -86.0435         0.990075        -175.989         0.989821        -175.991         0.140953         -85.922
60.03                    0.14113        -86.0741         0.990049         -176.02         0.989796        -176.021         0.141135        -85.9517
60.04                   0.141314        -86.1047         0.990022         -176.05         0.989771        -176.051         0.141318        -85.9815
60.05                   0.141497        -86.1352         0.989995         -176.08         0.989745        -176.082           0.1415        -86.0112
60.06                    0.14168        -86.1658         0.989968         -176.11          0.98972        -176.112         0.141682         -86.041
60.07                   0.141864        -86.1964         0.989941         -176.14         0.989694        -176.142         0.141864        -86.0708
60.08                   0.142047        -86.2269         0.989914         -176.17         0.989669        -176.172         0.142047        -86.1006
60.09                    0.14223        -86.2575         0.989887          -176.2         0.989643        -176.202         0.142229        -86.1303
60.1                    0.142414         -86.288          0.98986         -176.23         0.989618        -176.232         0.142411        -86.1601
60.11                   0.142597        -86.3185         0.989832        -176.261         0.989592        -176.263         0.142593        -86.1899
60.12                    0.14278        -86.3491         0.989805        -176.291         0.989566        -176.293         0.142775        -86.2197
60.13                   0.142963        -86.3796         0.989778        -176.321         0.989541        -176.323         0.142957        -86.2495
60.14                   0.143146        -86.4101         0.989751        -176.351         0.989515        -176.353         0.143139        -86.2793
60.15                   0.143329        -86.4407         0.989724        -176.381         0.989489        -176.383         0.143321        -86.3091
60.16                   0.143512        -86.4712         0.989697        -176.411         0.989464        -176.413         0.143503        -86.3389
60.17                   0.143695        -86.5017         0.989669        -176.441         0.989438        -176.443         0.143685        -86.3687
60.18                   0.143878        -86.5322         0.989642        -176.471         0.989412        -176.474         0.143867        -86.3985
60.19                   0.144061        -86.5627         0.989615        -176.502         0.989386        -176.504         0.144049        -86.4283
60.2                    0.144244        -86.5932         0.989588        -176.532          0.98936        -176.534         0.144231        -86.4581
60.21                   0.144427        -86.6237          0.98956        -176.562         0.989335        -176.564         0.144413        -86.4879
60.22                   0.144609        -86.6542         0.989533        -176.592         0.989309        -176.594         0.144595        -86.5177
60.23                   0.144792        -86.6847         0.989505        -176.622         0.989283        -176.624         0.144776        -86.5476
60.24                   0.144975        -86.7152         0.989478        -176.652         0.989257        -176.654         0.144958        -86.5774
60.25                   0.145157        -86.7456         0.989451        -176.682         0.989231        -176.685          0.14514        -86.6072
60.26                    0.14534        -86.7761         0.989423        -176.712         0.989205        -176.715         0.145321        -86.6371
60.27                   0.145522        -86.8066         0.989396        -176.743         0.989179        -176.745         0.145503        -86.6669
60.28                   0.145705         -86.837         0.989368        -176.773         0.989153        -176.775         0.145685        -86.6967
60.29                   0.145887        -86.8675         0.989341        -176.803         0.989127        -176.805         0.145866        -86.7266
60.3                     0.14607        -86.8979         0.989313        -176.833         0.989101        -176.835         0.146048        -86.7564
60.31                   0.146252        -86.9284         0.989286        -176.863         0.989075        -176.865         0.146229        -86.7863
60.32                   0.146434        -86.9588         0.989258        -176.893         0.989049        -176.895         0.146411        -86.8161
60.33                   0.146617        -86.9893         0.989231        -176.923         0.989023        -176.926         0.146592         -86.846
60.34                   0.146799        -87.0197         0.989203        -176.953         0.988996        -176.956         0.146774        -86.8758
60.35                   0.146981        -87.0502         0.989175        -176.983          0.98897        -176.986         0.146955        -86.9057
60.36                   0.147163        -87.0806         0.989148        -177.014         0.988944        -177.016         0.147137        -86.9355
60.37                   0.147345         -87.111          0.98912        -177.044         0.988918        -177.046         0.147318        -86.9654
60.38                   0.147527        -87.1414         0.989092        -177.074         0.988892        -177.076         0.147499        -86.9953
60.39                   0.147709        -87.1719         0.989065        -177.104         0.988865        -177.106          0.14768        -87.0251
60.4                    0.147891        -87.2023         0.989037        -177.134         0.988839        -177.136         0.147862         -87.055
60.41                   0.148073        -87.2327         0.989009        -177.164         0.988813        -177.167         0.148043        -87.0849
60.42                   0.148255        -87.2631         0.988981        -177.194         0.988786        -177.197         0.148224        -87.1148
60.43                   0.148437        -87.2935         0.988953        -177.224          0.98876        -177.227         0.148405        -87.1446
60.44                   0.148619        -87.3239         0.988926        -177.254         0.988734        -177.257         0.148586        -87.1745
60.45                     0.1488        -87.3543         0.988898        -177.284         0.988707        -177.287         0.148767        -87.2044
60.46                   0.148982        -87.3847          0.98887        -177.315         0.988681        -177.317         0.148948        -87.2343
60.47                   0.149164         -87.415         0.988842        -177.345         0.988654        -177.347         0.149129        -87.2642
60.48                   0.149345        -87.4454         0.988814        -177.375         0.988628        -177.377          0.14931        -87.2941
60.49                   0.149527        -87.4758         0.988786        -177.405         0.988601        -177.407         0.149491         -87.324
60.5                    0.149708        -87.5062         0.988758        -177.435         0.988575        -177.438         0.149672        -87.3539
60.51                    0.14989        -87.5365          0.98873        -177.465         0.988548        -177.468         0.149853        -87.3838
60.52                   0.150071        -87.5669         0.988702        -177.495         0.988521        -177.498         0.150034        -87.4137
60.53                   0.150253        -87.5972         0.988674        -177.525         0.988495        -177.528         0.150215        -87.4436
60.54                   0.150434        -87.6276         0.988646        -177.555         0.988468        -177.558         0.150395        -87.4735
60.55                   0.150615        -87.6579         0.988618        -177.585         0.988442        -177.588         0.150576        -87.5034
60.56                   0.150796        -87.6883          0.98859        -177.615         0.988415        -177.618         0.150757        -87.5333
60.57                   0.150978        -87.7186         0.988562        -177.646         0.988388        -177.648         0.150938        -87.5632
60.58                   0.151159         -87.749         0.988533        -177.676         0.988361        -177.678         0.151118        -87.5931
60.59                    0.15134        -87.7793         0.988505        -177.706         0.988335        -177.708         0.151299         -87.623
60.6                    0.151521        -87.8096         0.988477        -177.736         0.988308        -177.738         0.151479         -87.653
60.61                   0.151702          -87.84         0.988449        -177.766         0.988281        -177.769          0.15166        -87.6829
60.62                   0.151883        -87.8703         0.988421        -177.796         0.988254        -177.799          0.15184        -87.7128
60.63                   0.152064        -87.9006         0.988392        -177.826         0.988227        -177.829         0.152021        -87.7427
60.64                   0.152245        -87.9309         0.988364        -177.856           0.9882        -177.859         0.152201        -87.7727
60.65                   0.152425        -87.9612         0.988336        -177.886         0.988174        -177.889         0.152381        -87.8026
60.66                   0.152606        -87.9915         0.988307        -177.916         0.988147        -177.919         0.152562        -87.8325
60.67                   0.152787        -88.0218         0.988279        -177.946          0.98812        -177.949         0.152742        -87.8625
60.68                   0.152967        -88.0521         0.988251        -177.976         0.988093        -177.979         0.152922        -87.8924
60.69                   0.153148        -88.0824         0.988222        -178.006         0.988066        -178.009         0.153102        -87.9223
60.7                    0.153329        -88.1127         0.988194        -178.037         0.988039        -178.039         0.153283        -87.9523
60.71                   0.153509         -88.143         0.988165        -178.067         0.988012        -178.069         0.153463        -87.9822
60.72                    0.15369        -88.1733         0.988137        -178.097         0.987985        -178.099         0.153643        -88.0122
60.73                    0.15387        -88.2035         0.988108        -178.127         0.987958        -178.129         0.153823        -88.0421
60.74                    0.15405        -88.2338          0.98808        -178.157          0.98793         -178.16         0.154003        -88.0721
60.75                   0.154231        -88.2641         0.988051        -178.187         0.987903         -178.19         0.154183         -88.102
60.76                   0.154411        -88.2943         0.988023        -178.217         0.987876         -178.22         0.154363         -88.132
60.77                   0.154591        -88.3246         0.987994        -178.247         0.987849         -178.25         0.154543        -88.1619
60.78                   0.154771        -88.3549         0.987966        -178.277         0.987822         -178.28         0.154723        -88.1919
60.79                   0.154952        -88.3851         0.987937        -178.307         0.987794         -178.31         0.154902        -88.2218
60.8                    0.155132        -88.4154         0.987908        -178.337         0.987767         -178.34         0.155082        -88.2518
60.81                   0.155312        -88.4456          0.98788        -178.367          0.98774         -178.37         0.155262        -88.2818
60.82                   0.155492        -88.4758         0.987851        -178.397         0.987713          -178.4         0.155442        -88.3117
60.83                   0.155672        -88.5061         0.987822        -178.427         0.987685         -178.43         0.155621        -88.3417
60.84                   0.155852        -88.5363         0.987794        -178.457         0.987658         -178.46         0.155801        -88.3717
60.85                   0.156031        -88.5665         0.987765        -178.487         0.987631         -178.49         0.155981        -88.4016
60.86                   0.156211        -88.5968         0.987736        -178.517         0.987603         -178.52          0.15616        -88.4316
60.87                   0.156391         -88.627         0.987707        -178.548         0.987576         -178.55          0.15634        -88.4616
60.88                   0.156571        -88.6572         0.987678        -178.578         0.987548         -178.58         0.156519        -88.4916
60.89                    0.15675        -88.6874          0.98765        -178.608         0.987521         -178.61         0.156699        -88.5215
60.9                     0.15693        -88.7176         0.987621        -178.638         0.987493         -178.64         0.156878        -88.5515
60.91                   0.157109        -88.7478         0.987592        -178.668         0.987466         -178.67         0.157057        -88.5815
60.92                   0.157289         -88.778         0.987563        -178.698         0.987438          -178.7         0.157237        -88.6115
60.93                   0.157468        -88.8082         0.987534        -178.728         0.987411        -178.731         0.157416        -88.6415
60.94                   0.157648        -88.8384         0.987505        -178.758         0.987383        -178.761         0.157595        -88.6714
60.95                   0.157827        -88.8686         0.987476        -178.788         0.987356        -178.791         0.157774        -88.7014
60.96                   0.158006        -88.8988         0.987447        -178.818         0.987328        -178.821         0.157953        -88.7314
60.97                   0.158186         -88.929         0.987418        -178.848           0.9873        -178.851         0.158133        -88.7614
60.98                   0.158365        -88.9591         0.987389        -178.878         0.987273        -178.881         0.158312        -88.7914
60.99                   0.158544        -88.9893          0.98736        -178.908         0.987245        -178.911         0.158491        -88.8214
61                      0.158723        -89.0195         0.987331        -178.938         0.987217        -178.941          0.15867        -88.8514
61.01                   0.158902        -89.0497         0.987302        -178.968         0.987189        -178.971         0.158849        -88.8814
61.02                   0.159081        -89.0798         0.987273        -178.998         0.987162        -179.001         0.159027        -88.9114
61.03                    0.15926          -89.11         0.987244        -179.028         0.987134        -179.031         0.159206        -88.9414
61.04                   0.159439        -89.1401         0.987215        -179.058         0.987106        -179.061         0.159385        -88.9714
61.05                   0.159618        -89.1703         0.987185        -179.088         0.987078        -179.091         0.159564        -89.0014
61.06                   0.159796        -89.2004         0.987156        -179.118          0.98705        -179.121         0.159743        -89.0314
61.07                   0.159975        -89.2306         0.987127        -179.148         0.987023        -179.151         0.159921        -89.0614
61.08                   0.160154        -89.2607         0.987098        -179.178         0.986995        -179.181           0.1601        -89.0914
61.09                   0.160333        -89.2908         0.987068        -179.208         0.986967        -179.211         0.160278        -89.1214
61.1                    0.160511         -89.321         0.987039        -179.238         0.986939        -179.241         0.160457        -89.1514
61.11                    0.16069        -89.3511          0.98701        -179.268         0.986911        -179.271         0.160635        -89.1814
61.12                   0.160868        -89.3812         0.986981        -179.298         0.986883        -179.301         0.160814        -89.2114
61.13                   0.161047        -89.4114         0.986951        -179.328         0.986855        -179.331         0.160992        -89.2414
61.14                   0.161225        -89.4415         0.986922        -179.358         0.986827        -179.361         0.161171        -89.2714
61.15                   0.161403        -89.4716         0.986892        -179.388         0.986799        -179.391         0.161349        -89.3015
61.16                   0.161581        -89.5017         0.986863        -179.418         0.986771        -179.421         0.161527        -89.3315
61.17                    0.16176        -89.5318         0.986834        -179.448         0.986742        -179.451         0.161706        -89.3615
61.18                   0.161938        -89.5619         0.986804        -179.478         0.986714        -179.481         0.161884        -89.3915
61.19                   0.162116         -89.592         0.986775        -179.508         0.986686        -179.511         0.162062        -89.4215
61.2                    0.162294        -89.6221         0.986745        -179.538         0.986658        -179.541          0.16224        -89.4515
61.21                   0.162472        -89.6522         0.986716        -179.568          0.98663        -179.571         0.162418        -89.4816
61.22                    0.16265        -89.6823         0.986686        -179.598         0.986602        -179.601         0.162596        -89.5116
61.23                   0.162828        -89.7124         0.986657        -179.628         0.986573        -179.631         0.162774        -89.5416
61.24                   0.163006        -89.7424         0.986627        -179.658         0.986545        -179.661         0.162952        -89.5716
61.25                   0.163184        -89.7725         0.986597        -179.688         0.986517        -179.691          0.16313        -89.6016
61.26                   0.163361        -89.8026         0.986568        -179.718         0.986489        -179.721         0.163308        -89.6317
61.27                   0.163539        -89.8327         0.986538        -179.748          0.98646        -179.751         0.163485        -89.6617
61.28                   0.163717        -89.8627         0.986509        -179.778         0.986432        -179.781         0.163663        -89.6917
61.29                   0.163894        -89.8928         0.986479        -179.808         0.986403        -179.811         0.163841        -89.7217
61.3                    0.164072        -89.9228         0.986449        -179.838         0.986375        -179.841         0.164018        -89.7518
61.31                   0.164249        -89.9529         0.986419        -179.868         0.986347        -179.871         0.164196        -89.7818
61.32                   0.164427        -89.9829          0.98639        -179.898         0.986318        -179.901         0.164374        -89.8118
61.33                   0.164604         -90.013          0.98636        -179.928          0.98629        -179.931         0.164551        -89.8419
61.34                   0.164781         -90.043          0.98633        -179.958         0.986261        -179.961         0.164728        -89.8719
61.35                   0.164959        -90.0731           0.9863        -179.988         0.986233        -179.991         0.164906        -89.9019
61.36                   0.165136        -90.1031          0.98627         179.982         0.986204         179.979         0.165083         -89.932
61.37                   0.165313        -90.1331         0.986241         179.952         0.986176         179.949         0.165261         -89.962
61.38                    0.16549        -90.1632         0.986211         179.922         0.986147          179.92         0.165438         -89.992
61.39                   0.165667        -90.1932         0.986181         179.892         0.986118          179.89         0.165615        -90.0221
61.4                    0.165844        -90.2232         0.986151         179.862          0.98609          179.86         0.165792        -90.0521
61.41                   0.166021        -90.2532         0.986121         179.832         0.986061          179.83         0.165969        -90.0821
61.42                   0.166198        -90.2832         0.986091         179.802         0.986032           179.8         0.166146        -90.1122
61.43                   0.166375        -90.3133         0.986061         179.772         0.986004          179.77         0.166323        -90.1422
61.44                   0.166551        -90.3433         0.986031         179.742         0.985975          179.74           0.1665        -90.1723
61.45                   0.166728        -90.3733         0.986001         179.712         0.985946          179.71         0.166677        -90.2023
61.46                   0.166905        -90.4033         0.985971         179.682         0.985918          179.68         0.166854        -90.2323
61.47                   0.167081        -90.4333         0.985941         179.652         0.985889          179.65         0.167031        -90.2624
61.48                   0.167258        -90.4632         0.985911         179.622          0.98586          179.62         0.167208        -90.2924
61.49                   0.167435        -90.4932         0.985881         179.592         0.985831          179.59         0.167384        -90.3225
61.5                    0.167611        -90.5232         0.985851         179.562         0.985802          179.56         0.167561        -90.3525
61.51                   0.167787        -90.5532         0.985821         179.532         0.985773          179.53         0.167738        -90.3825
61.52                   0.167964        -90.5832          0.98579         179.502         0.985745           179.5         0.167914        -90.4126
61.53                    0.16814        -90.6132          0.98576         179.472         0.985716          179.47         0.168091        -90.4426
61.54                   0.168316        -90.6431          0.98573         179.442         0.985687          179.44         0.168267        -90.4727
61.55                   0.168492        -90.6731           0.9857         179.412         0.985658          179.41         0.168444        -90.5027
61.56                   0.168668        -90.7031          0.98567         179.382         0.985629         179.381          0.16862        -90.5328
61.57                   0.168845         -90.733         0.985639         179.353           0.9856         179.351         0.168796        -90.5628
61.58                   0.169021         -90.763         0.985609         179.323         0.985571         179.321         0.168973        -90.5928
61.59                   0.169196        -90.7929         0.985579         179.293         0.985542         179.291         0.169149        -90.6229
61.6                    0.169372        -90.8229         0.985548         179.263         0.985513         179.261         0.169325        -90.6529
61.61                   0.169548        -90.8528         0.985518         179.233         0.985484         179.231         0.169501         -90.683
61.62                   0.169724        -90.8828         0.985488         179.203         0.985454         179.201         0.169677         -90.713
61.63                     0.1699        -90.9127         0.985457         179.173         0.985425         179.171         0.169853        -90.7431
61.64                   0.170075        -90.9426         0.985427         179.143         0.985396         179.141         0.170029        -90.7731
61.65                   0.170251        -90.9726         0.985397         179.113         0.985367         179.111         0.170205        -90.8032
61.66                   0.170426        -91.0025         0.985366         179.083         0.985338         179.081         0.170381        -90.8332
61.67                   0.170602        -91.0324         0.985336         179.053         0.985309         179.051         0.170557        -90.8633
61.68                   0.170777        -91.0623         0.985305         179.023         0.985279         179.022         0.170733        -90.8933
61.69                   0.170953        -91.0923         0.985275         178.993          0.98525         178.992         0.170908        -90.9233
61.7                    0.171128        -91.1222         0.985244         178.963         0.985221         178.962         0.171084        -90.9534
61.71                   0.171303        -91.1521         0.985214         178.933         0.985192         178.932         0.171259        -90.9834
61.72                   0.171479         -91.182         0.985183         178.903         0.985162         178.902         0.171435        -91.0135
61.73                   0.171654        -91.2119         0.985153         178.874         0.985133         178.872         0.171611        -91.0435
61.74                   0.171829        -91.2418         0.985122         178.844         0.985104         178.842         0.171786        -91.0736
61.75                   0.172004        -91.2717         0.985091         178.814         0.985074         178.812         0.171961        -91.1036
61.76                   0.172179        -91.3016         0.985061         178.784         0.985045         178.782         0.172137        -91.1337
61.77                   0.172354        -91.3315          0.98503         178.754         0.985015         178.752         0.172312        -91.1637
61.78                   0.172529        -91.3614         0.984999         178.724         0.984986         178.723         0.172487        -91.1938
61.79                   0.172703        -91.3913         0.984969         178.694         0.984956         178.693         0.172662        -91.2238
61.8                    0.172878        -91.4211         0.984938         178.664         0.984927         178.663         0.172837        -91.2539
61.81                   0.173053         -91.451         0.984907         178.634         0.984897         178.633         0.173013        -91.2839
61.82                   0.173227        -91.4809         0.984876         178.604         0.984868         178.603         0.173188         -91.314
61.83                   0.173402        -91.5108         0.984846         178.574         0.984838         178.573         0.173362         -91.344
61.84                   0.173577        -91.5406         0.984815         178.545         0.984809         178.543         0.173537        -91.3741
61.85                   0.173751        -91.5705         0.984784         178.515         0.984779         178.513         0.173712        -91.4041
61.86                   0.173925        -91.6003         0.984753         178.485         0.984749         178.484         0.173887        -91.4341
61.87                     0.1741        -91.6302         0.984722         178.455          0.98472         178.454         0.174062        -91.4642
61.88                   0.174274          -91.66         0.984692         178.425          0.98469         178.424         0.174236        -91.4942
61.89                   0.174448        -91.6899         0.984661         178.395          0.98466         178.394         0.174411        -91.5243
61.9                    0.174622        -91.7197          0.98463         178.365         0.984631         178.364         0.174586        -91.5543
61.91                   0.174797        -91.7496         0.984599         178.335         0.984601         178.334          0.17476        -91.5844
61.92                   0.174971        -91.7794         0.984568         178.305         0.984571         178.304         0.174935        -91.6144
61.93                   0.175145        -91.8093         0.984537         178.275         0.984541         178.275         0.175109        -91.6445
61.94                   0.175318        -91.8391         0.984506         178.246         0.984512         178.245         0.175283        -91.6745
61.95                   0.175492        -91.8689         0.984475         178.216         0.984482         178.215         0.175458        -91.7045
61.96                   0.175666        -91.8987         0.984444         178.186         0.984452         178.185         0.175632        -91.7346