! TOUCHSTONE file generated by CST MICROWAVE STUDIO
! Date and time: Tue Feb 27 23:50:38 2024
! Project name: material_desal.cst
! Header version: 2018
! Port assignment regex: !\s*Touchstone port\s*([0-9]+)\s*=\s*(CST MWS port|CST DS port)\s*([0-9]+|Zmin|Zmax)\s*\(\"(.*)\"\)(\s*mode\s*([0-9]+))?.*
! Touchstone port assignment:
! Touchstone port 1 = CST MWS port 1 ("")
! Touchstone port 2 = CST MWS port 2 ("")
# GHz S MA R 376.7
60                      0.134399        -114.486         0.991097         155.527         0.990903          155.52         0.134305        -114.492
60.01                   0.135419        -114.562          0.99088          155.44         0.990735         155.433         0.135348        -114.584
60.02                   0.136399        -114.637         0.990677         155.355         0.990575         155.349         0.136348        -114.672
60.03                   0.137343         -114.71         0.990486         155.272         0.990421         155.266          0.13731        -114.757
60.04                   0.138253        -114.783         0.990306         155.192         0.990274         155.187         0.138235         -114.84
60.05                    0.13913        -114.854         0.990135         155.114         0.990131         155.109         0.139127         -114.92
60.06                   0.139979        -114.925         0.989974         155.038         0.989994         155.033         0.139987        -114.998
60.07                   0.140799        -114.994          0.98982         154.963         0.989862         154.959         0.140818        -115.073
60.08                   0.141593        -115.062         0.989674         154.891         0.989734         154.886         0.141622        -115.147
60.09                   0.142363         -115.13         0.989535          154.82          0.98961         154.816           0.1424        -115.219
60.1                     0.14311        -115.196         0.989402         154.751          0.98949         154.746         0.143154        -115.289
60.11                   0.143835        -115.262         0.989275         154.683         0.989374         154.678         0.143886        -115.357
60.12                    0.14454        -115.327         0.989153         154.616         0.989261         154.611         0.144597        -115.424
60.13                   0.145226        -115.391         0.989035         154.551         0.989152         154.546         0.145288         -115.49
60.14                   0.145893        -115.454         0.988922         154.487         0.989045         154.481          0.14596        -115.555
60.15                   0.146544        -115.516         0.988813         154.424         0.988942         154.418         0.146614        -115.618
60.16                   0.147178        -115.578         0.988708         154.361          0.98884         154.356         0.147252         -115.68
60.17                   0.147797        -115.638         0.988606           154.3         0.988742         154.294         0.147873        -115.742
60.18                   0.148402        -115.699         0.988508          154.24         0.988646         154.234         0.148481        -115.802
60.19                   0.148993        -115.758         0.988413         154.181         0.988552         154.174         0.149073        -115.861
60.2                    0.149571        -115.817          0.98832         154.122          0.98846         154.115         0.149653         -115.92
60.21                   0.150136        -115.875          0.98823         154.064          0.98837         154.057          0.15022        -115.978
60.22                    0.15069        -115.933         0.988143         154.007         0.988282             154         0.150775        -116.035
60.23                   0.151232         -115.99         0.988057          153.95         0.988196         153.943         0.151318        -116.091
60.24                   0.151764        -116.046         0.987974         153.895         0.988111         153.887         0.151851        -116.147
60.25                   0.152285        -116.102         0.987893         153.839         0.988028         153.832         0.152373        -116.202
60.26                   0.152797        -116.158         0.987814         153.785         0.987947         153.777         0.152885        -116.256
60.27                     0.1533        -116.213         0.987737         153.731         0.987867         153.723         0.153388         -116.31
60.28                   0.153794        -116.267         0.987661         153.677         0.987789         153.669         0.153882        -116.364
60.29                   0.154279        -116.321         0.987586         153.624         0.987711         153.616         0.154367        -116.416
60.3                    0.154757        -116.375         0.987514         153.572         0.987636         153.563         0.154845        -116.469
60.31                   0.155226        -116.428         0.987442          153.52         0.987561         153.511         0.155314        -116.521
60.32                   0.155688        -116.481         0.987372         153.468         0.987487         153.459         0.155776        -116.572
60.33                   0.156144        -116.533         0.987303         153.417         0.987415         153.407         0.156231        -116.623
60.34                   0.156592        -116.585         0.987235         153.366         0.987343         153.356         0.156679        -116.674
60.35                   0.157034        -116.637         0.987168         153.315         0.987273         153.306         0.157121        -116.724
60.36                    0.15747        -116.688         0.987103         153.265         0.987203         153.255         0.157556        -116.774
60.37                   0.157899        -116.739         0.987038         153.216         0.987135         153.205         0.157985        -116.824
60.38                   0.158323         -116.79         0.986974         153.166         0.987067         153.156         0.158409        -116.873
60.39                   0.158742         -116.84         0.986911         153.117            0.987         153.107         0.158827        -116.922
60.4                    0.159155         -116.89         0.986849         153.068         0.986934         153.058         0.159239         -116.97
60.41                   0.159563         -116.94         0.986787          153.02         0.986869         153.009         0.159647        -117.019
60.42                   0.159967        -116.989         0.986727         152.971         0.986804         152.961          0.16005        -117.067
60.43                   0.160365        -117.038         0.986667         152.923          0.98674         152.913         0.160448        -117.115
60.44                   0.160759        -117.087         0.986607         152.876         0.986677         152.865         0.160841        -117.162
60.45                   0.161149        -117.136         0.986549         152.828         0.986615         152.817         0.161231         -117.21
60.46                   0.161535        -117.184         0.986491         152.781         0.986553          152.77         0.161616        -117.257
60.47                   0.161916        -117.232         0.986433         152.734         0.986491         152.723         0.161997        -117.304
60.48                   0.162294         -117.28         0.986376         152.687          0.98643         152.676         0.162374         -117.35
60.49                   0.162668        -117.328         0.986319         152.641          0.98637         152.629         0.162747        -117.397
60.5                    0.163038        -117.375         0.986263         152.594          0.98631         152.583         0.163117        -117.443
60.51                   0.163405        -117.423         0.986208         152.548         0.986251         152.536         0.163484        -117.489
60.52                   0.163769         -117.47         0.986153         152.502         0.986192          152.49         0.163847        -117.535
60.53                   0.164129        -117.516         0.986098         152.456         0.986134         152.445         0.164207        -117.581
60.54                   0.164487        -117.563         0.986044         152.411         0.986076         152.399         0.164563        -117.626
60.55                   0.164841        -117.609          0.98599         152.365         0.986019         152.353         0.164917        -117.672
60.56                   0.165192        -117.656         0.985936          152.32         0.985961         152.308         0.165268        -117.717
60.57                   0.165541        -117.702         0.985883         152.274         0.985905         152.263         0.165616        -117.762
60.58                   0.165887        -117.748          0.98583         152.229         0.985848         152.218         0.165962        -117.807
60.59                    0.16623        -117.793         0.985777         152.185         0.985793         152.173         0.166305        -117.852
60.6                    0.166571        -117.839         0.985724          152.14         0.985737         152.128         0.166645        -117.896
60.61                   0.166909        -117.885         0.985672         152.095         0.985682         152.083         0.166983        -117.941
60.62                   0.167245         -117.93          0.98562         152.051         0.985627         152.039         0.167319        -117.985
60.63                   0.167579        -117.975         0.985569         152.006         0.985572         151.995         0.167653         -118.03
60.64                    0.16791         -118.02         0.985517         151.962         0.985518          151.95         0.167984        -118.074
60.65                    0.16824        -118.065         0.985466         151.918         0.985464         151.906         0.168313        -118.118
60.66                   0.168567         -118.11         0.985415         151.874          0.98541         151.862         0.168641        -118.162
60.67                   0.168893        -118.154         0.985364          151.83         0.985356         151.818         0.168966        -118.206
60.68                   0.169216        -118.199         0.985314         151.786         0.985303         151.774         0.169289         -118.25
60.69                   0.169538        -118.243         0.985263         151.742          0.98525         151.731         0.169611        -118.293
60.7                    0.169858        -118.288         0.985213         151.699         0.985197         151.687         0.169931        -118.337
60.71                   0.170176        -118.332         0.985163         151.655         0.985144         151.644         0.170249        -118.381
60.72                   0.170493        -118.376         0.985113         151.612         0.985092           151.6         0.170566        -118.424
60.73                   0.170808         -118.42         0.985063         151.568         0.985039         151.557         0.170881        -118.467
60.74                   0.171122        -118.464         0.985013         151.525         0.984987         151.514         0.171195        -118.511
60.75                   0.171434        -118.507         0.984963         151.482         0.984935          151.47         0.171507        -118.554
60.76                   0.171745        -118.551         0.984914         151.438         0.984884         151.427         0.171818        -118.597
60.77                   0.172054        -118.595         0.984864         151.395         0.984832         151.384         0.172127         -118.64
60.78                   0.172362        -118.638         0.984815         151.352         0.984781         151.341         0.172435        -118.683
60.79                   0.172669        -118.682         0.984765         151.309         0.984729         151.298         0.172742        -118.726
60.8                    0.172974        -118.725         0.984716         151.266         0.984678         151.256         0.173048        -118.769
60.81                   0.173279        -118.768         0.984667         151.223         0.984627         151.213         0.173353        -118.812
60.82                   0.173582        -118.812         0.984618         151.181         0.984576          151.17         0.173656        -118.855
60.83                   0.173884        -118.855         0.984569         151.138         0.984525         151.127         0.173958        -118.897
60.84                   0.174186        -118.898          0.98452         151.095         0.984474         151.085          0.17426         -118.94
60.85                   0.174486        -118.941         0.984471         151.052         0.984424         151.042          0.17456        -118.983
60.86                   0.174785        -118.984         0.984422          151.01         0.984373             151          0.17486        -119.025
60.87                   0.175083        -119.027         0.984373         150.967         0.984323         150.957         0.175159        -119.068
60.88                   0.175381         -119.07         0.984324         150.925         0.984272         150.915         0.175456         -119.11
60.89                   0.175678        -119.112         0.984275         150.882         0.984222         150.872         0.175754        -119.153
60.9                    0.175973        -119.155         0.984226          150.84         0.984172          150.83          0.17605        -119.195
60.91                   0.176269        -119.198         0.984177         150.797         0.984121         150.788         0.176345        -119.237
60.92                   0.176563        -119.241         0.984128         150.755         0.984071         150.745          0.17664         -119.28
60.93                   0.176857        -119.283         0.984079         150.713         0.984021         150.703         0.176934        -119.322
60.94                    0.17715        -119.326          0.98403          150.67         0.983971         150.661         0.177228        -119.364
60.95                   0.177443        -119.368         0.983981         150.628         0.983921         150.619         0.177521        -119.407
60.96                   0.177735        -119.411         0.983932         150.586         0.983871         150.577         0.177814        -119.449
60.97                   0.178026        -119.453         0.983883         150.543          0.98382         150.534         0.178106        -119.491
60.98                   0.178317        -119.496         0.983834         150.501          0.98377         150.492         0.178397        -119.533
60.99                   0.178608        -119.538         0.983785         150.459          0.98372          150.45         0.178688        -119.575
61                      0.178898        -119.581         0.983736         150.417          0.98367         150.408         0.178979        -119.617
61.01                   0.179188        -119.623         0.983686         150.375          0.98362         150.366         0.179269         -119.66
61.02                   0.179477        -119.665         0.983637         150.332          0.98357         150.324         0.179559        -119.702
61.03                   0.179766        -119.708         0.983588          150.29          0.98352         150.282         0.179849        -119.744
61.04                   0.180055         -119.75         0.983538         150.248          0.98347          150.24         0.180139        -119.786
61.05                   0.180344        -119.792         0.983488         150.206         0.983419         150.198         0.180428        -119.828
61.06                   0.180632        -119.834         0.983439         150.164         0.983369         150.156         0.180717         -119.87
61.07                    0.18092        -119.877         0.983389         150.121         0.983319         150.114         0.181006        -119.912
61.08                   0.181208        -119.919         0.983339         150.079         0.983268         150.072         0.181295        -119.954
61.09                   0.181496        -119.961         0.983289         150.037         0.983218         150.029         0.181583        -119.996
61.1                    0.181784        -120.003         0.983239         149.995         0.983167         149.987         0.181872        -120.039
61.11                   0.182072        -120.046         0.983189         149.953         0.983117         149.945         0.182161        -120.081
61.12                    0.18236        -120.088         0.983139          149.91         0.983066         149.903         0.182449        -120.123
61.13                   0.182648         -120.13         0.983088         149.868         0.983015         149.861         0.182738        -120.165
61.14                   0.182936        -120.172         0.983038         149.826         0.982964         149.819         0.183027        -120.207
61.15                   0.183224        -120.215         0.982987         149.784         0.982913         149.777         0.183316        -120.249
61.16                   0.183513        -120.257         0.982936         149.741         0.982862         149.735         0.183605        -120.291
61.17                   0.183801        -120.299         0.982885         149.699         0.982811         149.693         0.183894        -120.333
61.18                    0.18409        -120.341         0.982834         149.657         0.982759          149.65         0.184184        -120.376
61.19                   0.184379        -120.384         0.982782         149.614         0.982708         149.608         0.184474        -120.418
61.2                    0.184668        -120.426         0.982731         149.572         0.982656         149.566         0.184764         -120.46
61.21                   0.184958        -120.468         0.982679          149.53         0.982604         149.524         0.185054        -120.502
61.22                   0.185248        -120.511         0.982627         149.487         0.982552         149.481         0.185345        -120.545
61.23                   0.185538        -120.553         0.982575         149.445           0.9825         149.439         0.185636        -120.587
61.24                   0.185829        -120.596         0.982523         149.402         0.982447         149.396         0.185928        -120.629
61.25                   0.186121        -120.638          0.98247          149.36         0.982395         149.354          0.18622        -120.672
61.26                   0.186413        -120.681         0.982417         149.317         0.982342         149.312         0.186513        -120.714
61.27                   0.186705        -120.723         0.982364         149.274         0.982289         149.269         0.186807        -120.757
61.28                   0.186999        -120.766         0.982311         149.232         0.982236         149.226         0.187101        -120.799
61.29                   0.187292        -120.808         0.982258         149.189         0.982182         149.184         0.187395        -120.842
61.3                    0.187587        -120.851         0.982204         149.146         0.982129         149.141         0.187691        -120.884
61.31                   0.187883        -120.894          0.98215         149.103         0.982075         149.098         0.187987        -120.927
61.32                   0.188179        -120.937         0.982096          149.06         0.982021         149.056         0.188285         -120.97
61.33                   0.188476        -120.979         0.982041         149.017         0.981966         149.013         0.188583        -121.013
61.34                   0.188774        -121.022         0.981986         148.974         0.981911          148.97         0.188882        -121.055
61.35                   0.189073        -121.065         0.981931         148.931         0.981856         148.927         0.189182        -121.098
61.36                   0.189374        -121.108         0.981875         148.888         0.981801         148.884         0.189483        -121.141
61.37                   0.189675        -121.151         0.981819         148.845         0.981745          148.84         0.189785        -121.184
61.38                   0.189978        -121.195         0.981763         148.801         0.981689         148.797         0.190088        -121.227
61.39                   0.190281        -121.238         0.981707         148.758         0.981633         148.754         0.190393        -121.271
61.4                    0.190586        -121.281          0.98165         148.714         0.981576          148.71         0.190699        -121.314
61.41                   0.190893        -121.325         0.981592         148.671         0.981519         148.667         0.191006        -121.357
61.42                   0.191201        -121.368         0.981534         148.627         0.981461         148.623         0.191315        -121.401
61.43                    0.19151        -121.412         0.981476         148.583         0.981403         148.579         0.191625        -121.444
61.44                   0.191821        -121.455         0.981418         148.539         0.981345         148.536         0.191937        -121.488
61.45                   0.192134        -121.499         0.981358         148.495         0.981286         148.492         0.192251        -121.532
61.46                   0.192449        -121.543         0.981299         148.451         0.981227         148.448         0.192566        -121.576
61.47                   0.192765        -121.587         0.981239         148.407         0.981167         148.403         0.192883         -121.62
61.48                   0.193083        -121.631         0.981178         148.362         0.981106         148.359         0.193203        -121.664
61.49                   0.193404        -121.675         0.981117         148.318         0.981046         148.315         0.193524        -121.708
61.5                    0.193726         -121.72         0.981056         148.273         0.980984          148.27         0.193847        -121.753
61.51                   0.194051        -121.764         0.980993         148.228         0.980922         148.225         0.194173        -121.797
61.52                   0.194378        -121.809          0.98093         148.183          0.98086          148.18           0.1945        -121.842
61.53                   0.194708        -121.854         0.980867         148.138         0.980796         148.135         0.194831        -121.887
61.54                    0.19504        -121.899         0.980803         148.093         0.980733          148.09         0.195164        -121.932
61.55                   0.195375        -121.944         0.980738         148.047         0.980668         148.045         0.195499        -121.977
61.56                   0.195713        -121.989         0.980673         148.002         0.980603         147.999         0.195838        -122.022
61.57                   0.196054        -122.035         0.980606         147.956         0.980537         147.953         0.196179        -122.068
61.58                   0.196397        -122.081         0.980539          147.91          0.98047         147.907         0.196524        -122.114
61.59                   0.196745        -122.127         0.980472         147.863         0.980402         147.861         0.196872         -122.16
61.6                    0.197095        -122.173         0.980403         147.817         0.980334         147.814         0.197223        -122.206
61.61                    0.19745        -122.219         0.980334          147.77         0.980265         147.768         0.197578        -122.252
61.62                   0.197808        -122.266         0.980263         147.723         0.980194         147.721         0.197936        -122.299
61.63                    0.19817        -122.312         0.980192         147.676         0.980123         147.674         0.198299        -122.346
61.64                   0.198536        -122.359         0.980119         147.628         0.980051         147.626         0.198666        -122.393
61.65                   0.198907        -122.407         0.980046         147.581         0.979978         147.579         0.199037         -122.44
61.66                   0.199282        -122.454         0.979971         147.532         0.979903         147.531         0.199412        -122.488
61.67                   0.199662        -122.502         0.979896         147.484         0.979828         147.482         0.199793        -122.536
61.68                   0.200048         -122.55         0.979819         147.435         0.979751         147.434         0.200179        -122.585
61.69                   0.200439        -122.599         0.979741         147.386         0.979673         147.385          0.20057        -122.633
61.7                    0.200835        -122.648         0.979661         147.337         0.979593         147.335         0.200967        -122.682
61.71                   0.201238        -122.697          0.97958         147.287         0.979512         147.286         0.201369        -122.732
61.72                   0.201647        -122.746         0.979498         147.237          0.97943         147.235         0.201779        -122.782
61.73                   0.202062        -122.796         0.979414         147.187         0.979346         147.185         0.202194        -122.832
61.74                   0.202485        -122.847         0.979328         147.136          0.97926         147.134         0.202617        -122.883
61.75                   0.202915        -122.898         0.979241         147.084         0.979172         147.083         0.203047        -122.934
61.76                   0.203354        -122.949         0.979151         147.032         0.979083         147.031         0.203485        -122.985
61.77                     0.2038        -123.001          0.97906          146.98         0.978992         146.978         0.203932        -123.037
61.78                   0.204256        -123.053         0.978967         146.927         0.978898         146.925         0.204387         -123.09
61.79                   0.204721        -123.106         0.978871         146.873         0.978802         146.872         0.204852        -123.144
61.8                    0.205196        -123.159         0.978774         146.819         0.978704         146.817         0.205327        -123.197
61.81                   0.205682        -123.213         0.978673         146.764         0.978604         146.763         0.205812        -123.252
61.82                    0.20618        -123.268          0.97857         146.708           0.9785         146.707         0.206309        -123.307
61.83                   0.206689        -123.324         0.978465         146.652         0.978394         146.651         0.206818        -123.363
61.84                   0.207212         -123.38         0.978356         146.595         0.978285         146.594         0.207339         -123.42
61.85                   0.207748        -123.437         0.978244         146.537         0.978173         146.536         0.207874        -123.478
61.86                     0.2083        -123.495         0.978128         146.478         0.978057         146.477         0.208424        -123.537
61.87                   0.208867        -123.553         0.978009         146.418         0.977937         146.417          0.20899        -123.596
61.88                   0.209451        -123.613         0.977886         146.357         0.977814         146.356         0.209573        -123.657
61.89                   0.210054        -123.674         0.977758         146.295         0.977686         146.294         0.210174        -123.719
61.9                    0.210676        -123.736         0.977626         146.232         0.977553         146.231         0.210794        -123.782
61.91                    0.21132        -123.799         0.977489         146.168         0.977415         146.167         0.211435        -123.846
61.92                   0.211987        -123.863         0.977347         146.102         0.977272         146.101         0.212099        -123.912
61.93                   0.212679        -123.929         0.977199         146.035         0.977123         146.034         0.212788        -123.979
61.94                   0.213398        -123.997         0.977044         145.966         0.976968         145.965         0.213503        -124.048
61.95                   0.214147        -124.066         0.976883         145.895         0.976806         145.894         0.214248        -124.118
61.96                   0.214928        -124.137         0.976713         145.822         0.976636         145.821         0.215023        -124.191
61.97                   0.215743         -124.21         0.976536         145.748         0.976458         145.747         0.215834        -124.266